# vtk DataFile Version 3.0
Triangulation generated with deal.II
ASCII
DATASET UNSTRUCTURED_GRID
POINTS 7803 double
0 0 0
1 0 0
2 0 0
3 0 0
4 0 0
5 0 0
6 0 0
7 0 0
0 1 0
1 1 0
2 1 0
3 1 0
4 1 0
5 1 0
6 1 0
7 1 0
0 2 0
1 2 0
2 2 0
3 2 0
4 2 0
5 2 0
6 2 0
7 2 0
0 3 0
1 3 0
2 3 0
3 3 0
4 3 0
5 3 0
6 3 0
7 3 0
0 4 0
1 4 0
2 4 0
3 4 0
4 4 0
5 4 0
6 4 0
7 4 0
0 5 0
1 5 0
2 5 0
3 5 0
4 5 0
5 5 0
6 5 0
7 5 0
0.5 0 0
0 0.5 0
1.5 0 0
1 0.5 0
2.5 0 0
2 0.5 0
3.5 0 0
3 0.5 0
4.5 0 0
4 0.5 0
5.5 0 0
5 0.5 0
6.5 0 0
6 0.5 0
7 0.5 0
0.5 1 0
0 1.5 0
1.5 1 0
1 1.5 0
2.5 1 0
2 1.5 0
3.5 1 0
3 1.5 0
4.5 1 0
4 1.5 0
5.5 1 0
5 1.5 0
6.5 1 0
6 1.5 0
7 1.5 0
0.5 2 0
0 2.5 0
1.5 2 0
1 2.5 0
2.5 2 0
2 2.5 0
3.5 2 0
3 2.5 0
4.5 2 0
4 2.5 0
5.5 2 0
5 2.5 0
6.5 2 0
6 2.5 0
7 2.5 0
0.5 3 0
0 3.5 0
1.5 3 0
1 3.5 0
2.5 3 0
2 3.5 0
3.5 3 0
3 3.5 0
4.5 3 0
4 3.5 0
5.5 3 0
5 3.5 0
6.5 3 0
6 3.5 0
7 3.5 0
0.5 4 0
0 4.5 0
1.5 4 0
1 4.5 0
2.5 4 0
2 4.5 0
3.5 4 0
3 4.5 0
4.5 4 0
4 4.5 0
5.5 4 0
5 4.5 0
6.5 4 0
6 4.5 0
7 4.5 0
0.5 5 0
1.5 5 0
2.5 5 0
3.5 5 0
4.5 5 0
5.5 5 0
6.5 5 0
0.5 0.5 0
1.5 0.5 0
2.5 0.5 0
3.5 0.5 0
4.5 0.5 0
5.5 0.5 0
6.5 0.5 0
0.5 1.5 0
2.5 1.5 0
4.5 1.5 0
6.5 1.5 0
0.5 2.5 0
1.5 2.5 0
2.5 2.5 0
3.5 2.5 0
4.5 2.5 0
5.5 2.5 0
6.5 2.5 0
0.5 3.5 0
2.5 3.5 0
4.5 3.5 0
6.5 3.5 0
0.5 4.5 0
1.5 4.5 0
2.5 4.5 0
3.5 4.5 0
4.5 4.5 0
5.5 4.5 0
6.5 4.5 0
0.25 0 0
0.75 0 0
0 0.25 0
0 0.75 0
1.25 0 0
1.75 0 0
1 0.25 0
1 0.75 0
2.25 0 0
2.75 0 0
2 0.25 0
2 0.75 0
3.25 0 0
3.75 0 0
3 0.25 0
3 0.75 0
4.25 0 0
4.75 0 0
4 0.25 0
4 0.75 0
5.25 0 0
5.75 0 0
5 0.25 0
5 0.75 0
6.25 0 0
6.75 0 0
6 0.25 0
6 0.75 0
7 0.25 0
7 0.75 0
0.25 1 0
0.75 1 0
0 1.25 0
0 1.75 0
1.25 1 0
1.75 1 0
1 1.25 0
1 1.75 0
2.25 1 0
2.75 1 0
2 1.25 0
2 1.75 0
3.25 1 0
3.75 1 0
3 1.25 0
3 1.75 0
4.25 1 0
4.75 1 0
4 1.25 0
4 1.75 0
5.25 1 0
5.75 1 0
5 1.25 0
5 1.75 0
6.25 1 0
6.75 1 0
6 1.25 0
6 1.75 0
7 1.25 0
7 1.75 0
0.25 2 0
0.75 2 0
0 2.25 0
0 2.75 0
1.25 2 0
1.75 2 0
1 2.25 0
1 2.75 0
2.25 2 0
2.75 2 0
2 2.25 0
2 2.75 0
3.25 2 0
3.75 2 0
3 2.25 0
3 2.75 0
4.25 2 0
4.75 2 0
4 2.25 0
4 2.75 0
5.25 2 0
5.75 2 0
5 2.25 0
5 2.75 0
6.25 2 0
6.75 2 0
6 2.25 0
6 2.75 0
7 2.25 0
7 2.75 0
0.25 3 0
0.75 3 0
0 3.25 0
0 3.75 0
1.25 3 0
1.75 3 0
1 3.25 0
1 3.75 0
2.25 3 0
2.75 3 0
2 3.25 0
2 3.75 0
3.25 3 0
3.75 3 0
3 3.25 0
3 3.75 0
4.25 3 0
4.75 3 0
4 3.25 0
4 3.75 0
5.25 3 0
5.75 3 0
5 3.25 0
5 3.75 0
6.25 3 0
6.75 3 0
6 3.25 0
6 3.75 0
7 3.25 0
7 3.75 0
0.25 4 0
0.75 4 0
0 4.25 0
0 4.75 0
1.25 4 0
1.75 4 0
1 4.25 0
1 4.75 0
2.25 4 0
2.75 4 0
2 4.25 0
2 4.75 0
3.25 4 0
3.75 4 0
3 4.25 0
3 4.75 0
4.25 4 0
4.75 4 0
4 4.25 0
4 4.75 0
5.25 4 0
5.75 4 0
5 4.25 0
5 4.75 0
6.25 4 0
6.75 4 0
6 4.25 0
6 4.75 0
7 4.25 0
7 4.75 0
0.25 5 0
0.75 5 0
1.25 5 0
1.75 5 0
2.25 5 0
2.75 5 0
3.25 5 0
3.75 5 0
4.25 5 0
4.75 5 0
5.25 5 0
5.75 5 0
6.25 5 0
6.75 5 0
0.5 0.25 0
0.5 0.75 0
0.25 0.5 0
0.75 0.5 0
1.5 0.25 0
1.5 0.75 0
1.25 0.5 0
1.75 0.5 0
2.5 0.25 0
2.5 0.75 0
2.25 0.5 0
2.75 0.5 0
3.5 0.25 0
3.5 0.75 0
3.25 0.5 0
3.75 0.5 0
4.5 0.25 0
4.5 0.75 0
4.25 0.5 0
4.75 0.5 0
5.5 0.25 0
5.5 0.75 0
5.25 0.5 0
5.75 0.5 0
6.5 0.25 0
6.5 0.75 0
6.25 0.5 0
6.75 0.5 0
0.5 1.25 0
0.5 1.75 0
0.25 1.5 0
0.75 1.5 0
2.5 1.25 0
2.5 1.75 0
2.25 1.5 0
2.75 1.5 0
4.5 1.25 0
4.5 1.75 0
4.25 1.5 0
4.75 1.5 0
6.5 1.25 0
6.5 1.75 0
6.25 1.5 0
6.75 1.5 0
0.5 2.25 0
0.5 2.75 0
0.25 2.5 0
0.75 2.5 0
1.5 2.25 0
1.5 2.75 0
1.25 2.5 0
1.75 2.5 0
2.5 2.25 0
2.5 2.75 0
2.25 2.5 0
2.75 2.5 0
3.5 2.25 0
3.5 2.75 0
3.25 2.5 0
3.75 2.5 0
4.5 2.25 0
4.5 2.75 0
4.25 2.5 0
4.75 2.5 0
5.5 2.25 0
5.5 2.75 0
5.25 2.5 0
5.75 2.5 0
6.5 2.25 0
6.5 2.75 0
6.25 2.5 0
6.75 2.5 0
0.5 3.25 0
0.5 3.75 0
0.25 3.5 0
0.75 3.5 0
2.5 3.25 0
2.5 3.75 0
2.25 3.5 0
2.75 3.5 0
4.5 3.25 0
4.5 3.75 0
4.25 3.5 0
4.75 3.5 0
6.5 3.25 0
6.5 3.75 0
6.25 3.5 0
6.75 3.5 0
0.5 4.25 0
0.5 4.75 0
0.25 4.5 0
0.75 4.5 0
1.5 4.25 0
1.5 4.75 0
1.25 4.5 0
1.75 4.5 0
2.5 4.25 0
2.5 4.75 0
2.25 4.5 0
2.75 4.5 0
3.5 4.25 0
3.5 4.75 0
3.25 4.5 0
3.75 4.5 0
4.5 4.25 0
4.5 4.75 0
4.25 4.5 0
4.75 4.5 0
5.5 4.25 0
5.5 4.75 0
5.25 4.5 0
5.75 4.5 0
6.5 4.25 0
6.5 4.75 0
6.25 4.5 0
6.75 4.5 0
0.25 0.25 0
0.75 0.25 0
0.25 0.75 0
0.75 0.75 0
1.25 0.25 0
1.75 0.25 0
1.25 0.75 0
1.75 0.75 0
2.25 0.25 0
2.75 0.25 0
2.25 0.75 0
2.75 0.75 0
3.25 0.25 0
3.75 0.25 0
3.25 0.75 0
3.75 0.75 0
4.25 0.25 0
4.75 0.25 0
4.25 0.75 0
4.75 0.75 0
5.25 0.25 0
5.75 0.25 0
5.25 0.75 0
5.75 0.75 0
6.25 0.25 0
6.75 0.25 0
6.25 0.75 0
6.75 0.75 0
0.25 1.25 0
0.75 1.25 0
0.25 1.75 0
0.75 1.75 0
2.25 1.25 0
2.75 1.25 0
2.25 1.75 0
2.75 1.75 0
4.25 1.25 0
4.75 1.25 0
4.25 1.75 0
4.75 1.75 0
6.25 1.25 0
6.75 1.25 0
6.25 1.75 0
6.75 1.75 0
0.25 2.25 0
0.75 2.25 0
0.25 2.75 0
0.75 2.75 0
1.25 2.25 0
1.75 2.25 0
1.25 2.75 0
1.75 2.75 0
2.25 2.25 0
2.75 2.25 0
2.25 2.75 0
2.75 2.75 0
3.25 2.25 0
3.75 2.25 0
3.25 2.75 0
3.75 2.75 0
4.25 2.25 0
4.75 2.25 0
4.25 2.75 0
4.75 2.75 0
5.25 2.25 0
5.75 2.25 0
5.25 2.75 0
5.75 2.75 0
6.25 2.25 0
6.75 2.25 0
6.25 2.75 0
6.75 2.75 0
0.25 3.25 0
0.75 3.25 0
0.25 3.75 0
0.75 3.75 0
2.25 3.25 0
2.75 3.25 0
2.25 3.75 0
2.75 3.75 0
4.25 3.25 0
4.75 3.25 0
4.25 3.75 0
4.75 3.75 0
6.25 3.25 0
6.75 3.25 0
6.25 3.75 0
6.75 3.75 0
0.25 4.25 0
0.75 4.25 0
0.25 4.75 0
0.75 4.75 0
1.25 4.25 0
1.75 4.25 0
1.25 4.75 0
1.75 4.75 0
2.25 4.25 0
2.75 4.25 0
2.25 4.75 0
2.75 4.75 0
3.25 4.25 0
3.75 4.25 0
3.25 4.75 0
3.75 4.75 0
4.25 4.25 0
4.75 4.25 0
4.25 4.75 0
4.75 4.75 0
5.25 4.25 0
5.75 4.25 0
5.25 4.75 0
5.75 4.75 0
6.25 4.25 0
6.75 4.25 0
6.25 4.75 0
6.75 4.75 0
0.125 0 0
0.375 0 0
0.625 0 0
0.875 0 0
0 0.125 0
0 0.375 0
0 0.625 0
0 0.875 0
1.125 0 0
1.375 0 0
1.625 0 0
1.875 0 0
1 0.125 0
1 0.375 0
1 0.625 0
1 0.875 0
2.125 0 0
2.375 0 0
2.625 0 0
2.875 0 0
2 0.125 0
2 0.375 0
2 0.625 0
2 0.875 0
3.125 0 0
3.375 0 0
3.625 0 0
3.875 0 0
3 0.125 0
3 0.375 0
3 0.625 0
3 0.875 0
4.125 0 0
4.375 0 0
4.625 0 0
4.875 0 0
4 0.125 0
4 0.375 0
4 0.625 0
4 0.875 0
5.125 0 0
5.375 0 0
5.625 0 0
5.875 0 0
5 0.125 0
5 0.375 0
5 0.625 0
5 0.875 0
6.125 0 0
6.375 0 0
6.625 0 0
6.875 0 0
6 0.125 0
6 0.375 0
6 0.625 0
6 0.875 0
7 0.125 0
7 0.375 0
7 0.625 0
7 0.875 0
0.125 1 0
0.375 1 0
0.625 1 0
0.875 1 0
0 1.125 0
0 1.375 0
0 1.625 0
0 1.875 0
1.125 1 0
1.375 1 0
1.625 1 0
1.875 1 0
1 1.125 0
1 1.375 0
1 1.625 0
1 1.875 0
2.125 1 0
2.375 1 0
2.625 1 0
2.875 1 0
2 1.125 0
2 1.375 0
2 1.625 0
2 1.875 0
3.125 1 0
3.375 1 0
3.625 1 0
3.875 1 0
3 1.125 0
3 1.375 0
3 1.625 0
3 1.875 0
4.125 1 0
4.375 1 0
4.625 1 0
4.875 1 0
4 1.125 0
4 1.375 0
4 1.625 0
4 1.875 0
5.125 1 0
5.375 1 0
5.625 1 0
5.875 1 0
5 1.125 0
5 1.375 0
5 1.625 0
5 1.875 0
6.125 1 0
6.375 1 0
6.625 1 0
6.875 1 0
6 1.125 0
6 1.375 0
6 1.625 0
6 1.875 0
7 1.125 0
7 1.375 0
7 1.625 0
7 1.875 0
0.125 2 0
0.375 2 0
0.625 2 0
0.875 2 0
0 2.125 0
0 2.375 0
0 2.625 0
0 2.875 0
1.125 2 0
1.375 2 0
1.625 2 0
1.875 2 0
1 2.125 0
1 2.375 0
1 2.625 0
1 2.875 0
2.125 2 0
2.375 2 0
2.625 2 0
2.875 2 0
2 2.125 0
2 2.375 0
2 2.625 0
2 2.875 0
3.125 2 0
3.375 2 0
3.625 2 0
3.875 2 0
3 2.125 0
3 2.375 0
3 2.625 0
3 2.875 0
4.125 2 0
4.375 2 0
4.625 2 0
4.875 2 0
4 2.125 0
4 2.375 0
4 2.625 0
4 2.875 0
5.125 2 0
5.375 2 0
5.625 2 0
5.875 2 0
5 2.125 0
5 2.375 0
5 2.625 0
5 2.875 0
6.125 2 0
6.375 2 0
6.625 2 0
6.875 2 0
6 2.125 0
6 2.375 0
6 2.625 0
6 2.875 0
7 2.125 0
7 2.375 0
7 2.625 0
7 2.875 0
0.125 3 0
0.375 3 0
0.625 3 0
0.875 3 0
0 3.125 0
0 3.375 0
0 3.625 0
0 3.875 0
1.125 3 0
1.375 3 0
1.625 3 0
1.875 3 0
1 3.125 0
1 3.375 0
1 3.625 0
1 3.875 0
2.125 3 0
2.375 3 0
2.625 3 0
2.875 3 0
2 3.125 0
2 3.375 0
2 3.625 0
2 3.875 0
3.125 3 0
3.375 3 0
3.625 3 0
3.875 3 0
3 3.125 0
3 3.375 0
3 3.625 0
3 3.875 0
4.125 3 0
4.375 3 0
4.625 3 0
4.875 3 0
4 3.125 0
4 3.375 0
4 3.625 0
4 3.875 0
5.125 3 0
5.375 3 0
5.625 3 0
5.875 3 0
5 3.125 0
5 3.375 0
5 3.625 0
5 3.875 0
6.125 3 0
6.375 3 0
6.625 3 0
6.875 3 0
6 3.125 0
6 3.375 0
6 3.625 0
6 3.875 0
7 3.125 0
7 3.375 0
7 3.625 0
7 3.875 0
0.125 4 0
0.375 4 0
0.625 4 0
0.875 4 0
0 4.125 0
0 4.375 0
0 4.625 0
0 4.875 0
1.125 4 0
1.375 4 0
1.625 4 0
1.875 4 0
1 4.125 0
1 4.375 0
1 4.625 0
1 4.875 0
2.125 4 0
2.375 4 0
2.625 4 0
2.875 4 0
2 4.125 0
2 4.375 0
2 4.625 0
2 4.875 0
3.125 4 0
3.375 4 0
3.625 4 0
3.875 4 0
3 4.125 0
3 4.375 0
3 4.625 0
3 4.875 0
4.125 4 0
4.375 4 0
4.625 4 0
4.875 4 0
4 4.125 0
4 4.375 0
4 4.625 0
4 4.875 0
5.125 4 0
5.375 4 0
5.625 4 0
5.875 4 0
5 4.125 0
5 4.375 0
5 4.625 0
5 4.875 0
6.125 4 0
6.375 4 0
6.625 4 0
6.875 4 0
6 4.125 0
6 4.375 0
6 4.625 0
6 4.875 0
7 4.125 0
7 4.375 0
7 4.625 0
7 4.875 0
0.125 5 0
0.375 5 0
0.625 5 0
0.875 5 0
1.125 5 0
1.375 5 0
1.625 5 0
1.875 5 0
2.125 5 0
2.375 5 0
2.625 5 0
2.875 5 0
3.125 5 0
3.375 5 0
3.625 5 0
3.875 5 0
4.125 5 0
4.375 5 0
4.625 5 0
4.875 5 0
5.125 5 0
5.375 5 0
5.625 5 0
5.875 5 0
6.125 5 0
6.375 5 0
6.625 5 0
6.875 5 0
0.5 0.125 0
0.5 0.375 0
0.5 0.625 0
0.5 0.875 0
0.125 0.5 0
0.375 0.5 0
0.625 0.5 0
0.875 0.5 0
1.5 0.125 0
1.5 0.375 0
1.5 0.625 0
1.5 0.875 0
1.125 0.5 0
1.375 0.5 0
1.625 0.5 0
1.875 0.5 0
2.5 0.125 0
2.5 0.375 0
2.5 0.625 0
2.5 0.875 0
2.125 0.5 0
2.375 0.5 0
2.625 0.5 0
2.875 0.5 0
3.5 0.125 0
3.5 0.375 0
3.5 0.625 0
3.5 0.875 0
3.125 0.5 0
3.375 0.5 0
3.625 0.5 0
3.875 0.5 0
4.5 0.125 0
4.5 0.375 0
4.5 0.625 0
4.5 0.875 0
4.125 0.5 0
4.375 0.5 0
4.625 0.5 0
4.875 0.5 0
5.5 0.125 0
5.5 0.375 0
5.5 0.625 0
5.5 0.875 0
5.125 0.5 0
5.375 0.5 0
5.625 0.5 0
5.875 0.5 0
6.5 0.125 0
6.5 0.375 0
6.5 0.625 0
6.5 0.875 0
6.125 0.5 0
6.375 0.5 0
6.625 0.5 0
6.875 0.5 0
0.5 1.125 0
0.5 1.375 0
0.5 1.625 0
0.5 1.875 0
0.125 1.5 0
0.375 1.5 0
0.625 1.5 0
0.875 1.5 0
2.5 1.125 0
2.5 1.375 0
2.5 1.625 0
2.5 1.875 0
2.125 1.5 0
2.375 1.5 0
2.625 1.5 0
2.875 1.5 0
4.5 1.125 0
4.5 1.375 0
4.5 1.625 0
4.5 1.875 0
4.125 1.5 0
4.375 1.5 0
4.625 1.5 0
4.875 1.5 0
6.5 1.125 0
6.5 1.375 0
6.5 1.625 0
6.5 1.875 0
6.125 1.5 0
6.375 1.5 0
6.625 1.5 0
6.875 1.5 0
0.5 2.125 0
0.5 2.375 0
0.5 2.625 0
0.5 2.875 0
0.125 2.5 0
0.375 2.5 0
0.625 2.5 0
0.875 2.5 0
1.5 2.125 0
1.5 2.375 0
1.5 2.625 0
1.5 2.875 0
1.125 2.5 0
1.375 2.5 0
[...]
CELL_DATA 7424
SCALARS MaterialID int 1
LOOKUP_TABLE default
0 0 0 0 0 0 0 0 0 0 0 0 0 0 0 0 0 0 0 0 0 0 0 0 0 0 0 0 0 0 0 0 0 0 0 0 0 0 0 0 0 0 0 0 0 0 0 0 0 0 0 0 0 0 0 0 0 0 0 0 0 0 0 0 0 0 0 0 0 0 0 0 0 0 0 0 0 0 0 0 0 0 0 0 0 0 0 0 0 0 0 0 0 0 0 0 0 0 0 0 0 0 0 0 0 0 0 0 0 0 0 0 0 0 0 0 0 0 0 0 0 0 0 0 0 0 0 0 0 0 0 0 0 0 0 0 0 0 0 0 0 0 0 0 0 0 0 0 0 0 0 0 0 0 0 0 0 0 0 0 0 0 0 0 0 0 0 0 0 0 0 0 0 0 0 0 0 0 0 0 0 0 0 0 0 0 0 0 0 0 0 0 0 0 0 0 0 0 0 0 0 0 0 0 0 0 0 0 0 0 0 0 0 0 0 0 0 0 0 0 0 0 0 0 0 0 0 0 0 0 0 0 0 0 0 0 0 0 0 0 0 0 0 0 0 0 0 0 0 0 0 0 0 0 0 0 0 0 0 0 0 0 0 0 0 0 0 0 0 0 0 0 0 0 0 0 0 0 0 0 0 0 0 0 0 0 0 0 0 0 0 0 0 0 0 0 0 0 0 0 0 0 0 0 0 0 0 0 0 0 0 0 0 0 0 0 0 0 0 0 0 0 0 0 0 0 0 0 0 0 0 0 0 0 0 0 0 0 0 0 0 0 0 0 0 0 0 0 0 0 0 0 0 0 0 0 0 0 0 0 0 0 0 0 0 0 0 0 0 0 0 0 0 0 0 0 0 0 0 0 0 0 0 0 0 0 0 0 0 0 0 0 0 0 0 0 0 0 0 0 0 0 0 0 0 0 0 0 0 0 0 0 0 0 0 0 0 0 0 0 0 0 0 0 0 0 0 0 0 0 0 0 0 0 0 0 0 0 0 0 0 0 0 0 0 0 0 0 0 0 0 0 0 0 0 0 0 0 0 0 0 0 0 0 0 0 0 0 0 0 0 0 0 0 0 0 0 0 0 0 0 0 0 0 0 0 0 0 0 0 0 0 0 0 0 0 0 0 0 0 0 0 0 0 0 0 0 0 0 0 0 0 0 0 0 0 0 0 0 0 0 0 0 0 0 0 0 0 0 0 0 0 0 0 0 0 0 0 0 0 0 0 0 0 0 0 0 0 0 0 0 0 0 0 0 0 0 0 0 0 0 0 0 0 0 0 0 0 0 0 0 0 0 0 0 0 0 0 0 0 0 0 0 0 0 0 0 0 0 0 0 0 0 0 0 0 0 0 0 0 0 0 0 0 0 0 0 0 0 0 0 0 0 0 0 0 0 0 0 0 0 0 0 0 0 0 0 0 0 0 0 0 0 0 0 0 0 0 0 0 0 0 0 0 0 0 0 0 0 0 0 0 0 0 0 0 0 0 0 0 0 0 0 0 0 0 0 0 0 0 0 0 0 0 0 0 0 0 0 0 0 0 0 0 0 0 0 0 0 0 0 0 0 0 0 0 0 0 0 0 0 0 0 0 0 0 0 0 0 0 0 0 0 0 0 0 0 0 0 0 0 0 0 0 0 0 0 0 0 0 0 0 0 0 0 0 0 0 0 0 0 0 0 0 0 0 0 0 0 0 0 0 0 0 0 0 0 0 0 0 0 0 0 0 0 0 0 0 0 0 0 0 0 0 0 0 0 0 0 0 0 0 0 0 0 0 0 0 0 0 0 0 0 0 0 0 0 0 0 0 0 0 0 0 0 0 0 0 0 0 0 0 0 0 0 0 0 0 0 0 0 0 0 0 0 0 0 0 0 0 0 0 0 0 0 0 0 0 0 0 0 0 0 0 0 0 0 0 0 0 0 0 0 0 0 0 0 0 0 0 0 0 0 0 0 0 0 0 0 0 0 0 0 0 0 0 0 0 0 0 0 0 0 0 0 0 0 0 0 0 0 0 0 0 0 0 0 0 0 0 0 0 0 0 0 0 0 0 0 0 0 0 0 0 0 0 0 0 0 0 0 0 0 0 0 0 0 0 0 0 0 0 0 0 0 0 0 0 0 0 0 0 0 0 0 0 0 0 0 0 0 0 0 0 0 0 0 0 0 0 0 0 0 0 0 0 0 0 0 0 0 0 0 0 0 0 0 0 0 0 0 0 0 0 0 0 0 0 0 0 0 0 0 0 0 0 0 0 0 0 0 0 0 0 0 0 0 0 0 0 0 0 0 0 0 0 0 0 0 0 0 0 0 0 0 0 0 0 0 0 0 0 0 0 0 0 0 0 0 0 0 0 0 0 0 0 0 0 0 0 0 0 0 0 0 0 0 0 0 0 0 0 0 0 0 0 0 0 0 0 0 0 0 0 0 0 0 0 0 0 0 0 0 0 0 0 0 0 0 0 0 0 0 0 0 0 0 0 0 0 0 0 0 0 0 0 0 0 0 0 0 0 0 0 0 0 0 0 0 0 0 0 0 0 0 0 0 0 0 0 0 0 0 0 0 0 0 0 0 0 0 0 0 0 0 0 0 0 0 0 0 0 0 0 0 0 0 0 0 0 0 0 0 0 0 0 0 0 0 0 0 0 0 0 0 0 0 0 0 0 0 0 0 0 0 0 0 0 0 0 0 0 0 0 0 0 0 0 0 0 0 0 0 0 0 0 0 0 0 0 0 0 0 0 0 0 0 0 0 0 0 0 0 0 0 0 0 0 0 0 0 0 0 0 0 0 0 0 0 0 0 0 0 0 0 0 0 0 0 0 0 0 0 0 0 0 0 0 0 0 0 0 0 0 0 0 0 0 0 0 0 0 0 0 0 0 0 0 0 0 0 0 0 0 0 0 0 0 0 0 0 0 0 0 0 0 0 0 0 0 0 0 0 0 0 0 0 0 0 0 0 0 0 0 0 0 0 0 0 0 0 0 0 0 0 0 0 0 0 0 0 0 0 0 0 0 0 0 0 0 0 0 0 0 0 0 0 0 0 0 0 0 0 0 0 0 0 0 0 0 0 0 0 0 0 0 0 0 0 0 0 0 0 0 0 0 0 0 0 0 0 0 0 0 0 0 0 0 0 0 0 0 0 0 0 0 0 0 0 0 0 0 0 0 0 0 0 0 0 0 0 0 0 0 0 0 0 0 0 0 0 0 0 0 0 0 0 0 0 0 0 0 0 0 0 0 0 0 0 0 0 0 0 0 0 0 0 0 0 0 0 0 0 0 0 0 0 0 0 0 0 0 0 0 0 0 0 0 0 0 0 0 0 0 0 0 0 0 0 0 0 0 0 0 0 0 0 0 0 0 0 0 0 0 0 0 0 0 0 0 0 0 0 0 0 0 0 0 0 0 0 0 0 0 0 0 0 0 0 0 0 0 0 0 0 0 0 0 0 0 0 0 0 0 0 0 0 0 0 0 0 0 0 0 0 0 0 0 0 0 0 0 0 0 0 0 0 0 0 0 0 0 0 0 0 0 0 0 0 0 0 0 0 0 0 0 0 0 0 0 0 0 0 0 0 0 0 0 0 0 0 0 0 0 0 0 0 0 0 0 0 0 0 0 0 0 0 0 0 0 0 0 0 0 0 0 0 0 0 0 0 0 0 0 0 0 0 0 0 0 0 0 0 0 0 0 0 0 0 0 0 0 0 0 0 0 0 0 0 0 0 0 0 0 0 0 0 0 0 0 0 0 0 0 0 0 0 0 0 0 0 0 0 0 0 0 0 0 0 0 0 0 0 0 0 0 0 0 0 0 0 0 0 0 0 0 0 0 0 0 0 0 0 0 0 0 0 0 0 0 0 0 0 0 0 0 0 0 0 0 0 0 0 0 0 0 0 0 0 0 0 0 0 0 0 0 0 0 0 0 0 0 0 0 0 0 0 0 0 0 0 0 0 0 0 0 0 0 0 0 0 0 0 0 0 0 0 0 0 0 0 0 0 0 0 0 0 0 0 0 0 0 0 0 0 0 0 0 0 0 0 0 0 0 0 0 0 0 0 0 0 0 0 0 0 0 0 0 0 0 0 0 0 0 0 0 0 0 0 0 0 0 0 0 0 0 0 0 0 0 0 0 0 0 0 0 0 0 0 0 0 0 0 0 0 0 0 0 0 0 0 0 0 0 0 0 0 0 0 0 0 0 0 0 0 0 0 0 0 0 0 0 0 0 0 0 0 0 0 0 0 0 0 0 0 0 0 0 0 0 0 0 0 0 0 0 0 0 0 0 0 0 0 0 0 0 0 0 0 0 0 0 0 0 0 0 0 0 0 0 0 0 0 0 0 0 0 0 0 0 0 0 0 0 0 0 0 0 0 0 0 0 0 0 0 0 0 0 0 0 0 0 0 0 0 0 0 0 0 0 0 0 0 0 0 0 0 0 0 0 0 0 0 0 0 0 0 0 0 0 0 0 0 0 0 0 0 0 0 0 0 0 0 0 0 0 0 0 0 0 0 0 0 0 0 0 0 0 0 0 0 0 0 0 0 0 0 0 0 0 0 0 0 0 0 0 0 0 0 0 0 0 0 0 0 0 0 0 0 0 0 0 0 0 0 0 0 0 0 0 0 0 0 0 0 0 0 0 0 0 0 0 0 0 0 0 0 0 0 0 0 0 0 0 0 0 0 0 0 0 0 0 0 0 0 0 0 0 0 0 0 0 0 0 0 0 0 0 0 0 0 0 0 0 0 0 0 0 0 0 0 0 0 0 0 0 0 0 0 0 0 0 0 0 0 0 0 0 0 0 0 0 0 0 0 0 0 0 0 0 0 0 0 0 0 0 0 0 0 0 0 0 0 0 0 0 0 0 0 0 0 0 0 0 0 0 0 0 0 0 0 0 0 0 0 0 0 0 0 0 0 0 0 0 0 0 0 0 0 0 0 0 0 0 0 0 0 0 0 0 0 0 0 0 0 0 0 0 0 0 0 0 0 0 0 0 0 0 0 0 0 0 0 0 0 0 0 0 0 0 0 0 0 0 0 0 0 0 0 0 0 0 0 0 0 0 0 0 0 0 0 0 0 0 0 0 0 0 0 0 0 0 0 0 0 0 0 0 0 0 0 0 0 0 0 0 0 0 0 0 0 0 0 0 0 0 0 0 0 0 0 0 0 0 0 0 0 0 0 0 0 0 0 0 0 0 0 0 0 0 0 0 0 0 0 0 0 0 0 0 0 0 0 0 0 0 0 0 0 0 0 0 0 0 0 0 0 0 0 0 0 0 0 0 0 0 0 0 0 0 0 0 0 0 0 0 0 0 0 0 0 0 0 0 0 0 0 0 0 0 0 0 0 0 0 0 0 0 0 0 0 0 0 0 0 0 0 0 0 0 0 0 0 0 0 0 0 0 0 0 0 0 0 0 0 0 0 0 0 0 0 0 0 0 0 0 0 0 0 0 0 0 0 0 0 0 0 0 0 0 0 0 0 0 0 0 0 0 0 0 0 0 0 0 0 0 0 0 0 0 0 0 0 0 0 0 0 0 0 0 0 0 0 0 0 0 0 0 0 0 0 0 0 0 0 0 0 0 0 0 0 0 0 0 0 0 0 0 0 0 0 0 0 0 0 0 0 0 0 0 0 0 0 0 0 0 0 0 0 0 0 0 0 0 0 0 0 0 0 0 0 0 0 0 0 0 0 0 0 0 0 0 0 0 0 0 0 0 0 0 0 0 0 0 0 0 0 0 0 0 0 0 0 0 0 0 0 0 0 0 0 0 0 0 0 0 0 0 0 0 0 0 0 0 0 0 0 0 0 0 0 0 0 0 0 0 0 0 0 0 0 0 0 0 0 0 0 0 0 0 0 0 0 0 0 0 0 0 0 0 0 0 0 0 0 0 0 0 0 0 0 0 0 0 0 0 0 0 0 0 0 0 0 0 0 0 0 0 0 0 0 0 0 0 0 0 0 0 0 0 0 0 0 0 0 0 0 0 0 0 0 0 0 0 0 0 0 0 0 0 0 0 0 0 0 0 0 0 0 0 0 0 0 0 0 0 0 0 0 0 0 0 0 0 0 0 0 0 0 0 0 0 0 0 0 0 0 0 0 0 0 0 0 0 0 0 0 0 0 0 0 0 0 0 0 0 0 0 0 0 0 0 0 0 0 0 0 0 0 0 0 0 0 0 0 0 0 0 0 0 0 0 0 0 0 0 0 0 0 0 0 0 0 0 0 0 0 0 0 0 0 0 0 0 0 0 0 0 0 0 0 0 0 0 0 0 0 0 0 0 0 0 0 0 0 0 0 0 0 0 0 0 0 0 0 0 0 0 0 0 0 0 0 0 0 0 0 0 0 0 0 0 0 0 0 0 0 0 0 0 0 0 0 0 0 0 0 0 0 0 0 0 0 0 0 0 0 0 0 0 0 0 0 0 0 0 0 0 0 0 0 0 0 0 0 0 0 0 0 0 0 0 0 0 0 0 0 0 0 0 0 0 0 0 0 0 0 0 0 0 0 0 0 0 0 0 0 0 0 0 0 0 0 0 0 0 0 0 0 0 0 0 0 0 0 0 0 0 0 0 0 0 0 0 0 0 0 0 0 0 0 0 0 0 0 0 0 0 0 0 0 0 0 0 0 0 0 0 0 0 0 0 0 0 0 0 0 0 0 0 0 0 0 0 0 0 0 0 0 0 0 0 0 0 0 0 0 0 0 0 0 0 0 0 0 0 0 0 0 0 0 0 0 0 0 0 0 0 0 0 0 0 0 0 0 0 0 0 0 0 0 0 0 0 0 0 0 0 0 0 0 0 0 0 0 0 0 0 0 0 0 0 0 0 0 0 0 0 0 0 0 0 0 0 0 0 0 0 0 0 0 0 0 0 0 0 0 0 0 0 0 0 0 0 0 0 0 0 0 0 0 0 0 0 0 0 0 0 0 0 0 0 0 0 0 0 0 0 0 0 0 0 0 0 0 0 0 0 0 0 0 0 0 0 0 0 0 0 0 0 0 0 0 0 0 0 0 0 0 0 0 0 0 0 0 0 0 0 0 0 0 0 0 0 0 0 0 0 0 0 0 0 0 0 0 0 0 0 0 0 0 0 0 0 0 0 0 0 0 0 0 0 0 0 0 0 0 0 0 0 0 0 0 0 0 0 0 0 0 0 0 0 0 0 0 0 0 0 0 0 0 0 0 0 0 0 0 0 0 0 0 0 0 0 0 0 0 0 0 0 0 0 0 0 0 0 0 0 0 0 0 0 0 0 0 0 0 0 0 0 0 0 0 0 0 0 0 0 0 0 0 0 0 0 0 0 0 0 0 0 0 0 0 0 0 0 0 0 0 0 0 0 0 0 0 0 0 0 0 0 0 0 0 0 0 0 0 0 0 0 0 0 0 0 0 0 0 0 0 0 0 0 0 0 0 0 0 0 0 0 0 0 0 0 0 0 0 0 0 0 0 0 0 0 0 0 0 0 0 0 0 0 0 0 0 0 0 0 0 0 0 0 0 0 0 0 0 0 0 0 0 0 0 0 0 0 0 0 0 0 0 0 0 0 0 0 0 0 0 0 0 0 0 0 0 0 0 0 0 0 0 0 0 0 0 0 0 0 0 0 0 0 0 0 0 0 0 0 0 0 0 0 0 0 0 0 0 0 0 0 0 0 0 0 0 0 0 0 0 0 0 0 0 0 0 0 0 0 0 0 0 0 0 0 0 0 0 0 0 0 0 0 0 0 0 0 0 0 0 0 0 0 0 0 0 0 0 0 0 0 0 0 0 0 0 0 0 0 0 0 0 0 0 0 0 0 0 0 0 0 0 0 0 0 0 0 0 0 0 0 0 0 0 0 0 0 0 0 0 0 0 0 0 0 0 0 0 0 0 0 0 0 0 0 0 0 0 0 0 0 0 0 0 0 0 0 0 0 0 0 0 0 0 0 0 0 0 0 0 0 0 0 0 0 0 0 0 0 0 0 0 0 0 0 0 0 0 0 0 0 0 0 0 0 0 0 0 0 0 0 0 0 0 0 0 0 0 0 0 0 0 0 0 0 0 0 0 0 0 0 0 0 0 0 0 0 0 0 0 0 0 0 0 0 0 0 0 0 0 0 0 0 0 0 0 0 0 0 0 0 0 0 0 0 0 0 0 0 0 0 0 0 0 0 0 0 0 0 0 0 0 0 0 0 0 0 0 0 0 0 0 0 0 0 0 0 0 0 0 0 0 0 0 0 0 0 0 0 0 0 0 0 0 0 0 0 0 0 0 0 0 0 0 0 0 0 0 0 0 0 0 0 0 0 0 0 0 0 0 0 0 0 0 0 0 0 0 0 0 0 0 0 0 0 0 0 0 0 0 0 0 0 0 0 0 0 0 0 0 0 0 0 0 0 0 0 0 0 0 0 0 0 0 0 0 0 0 0 0 0 0 0 0 0 0 0 0 0 0 0 0 0 0 0 0 0 0 0 0 0 0 0 0 0 0 0 0 0 0 0 0 0 0 0 0 0 0 0 0 0 0 0 0 0 0 0 0 0 0 0 0 0 0 0 0 0 0 0 0 0 0 0 0 0 0 0 0 0 0 0 0 0 0 0 0 0 0 0 0 0 0 0 0 0 0 0 0 0 0 0 0 0 0 0 0 0 0 0 0 0 0 0 0 0 0 0 0 0 0 0 0 0 0 0 0 0 0 0 0 0 0 0 0 0 0 0 0 0 0 0 0 0 0 0 0 0 0 0 0 0 0 0 0 0 0 0 0 0 0 0 0 0 0 0 0 0 0 0 0 0 0 0 0 0 0 0 0 0 0 0 0 0 0 0 0 0 0 0 0 0 0 0 0 0 0 0 0 0 0 0 0 0 0 0 0 0 0 0 0 0 0 0 0 0 0 0 0 0 0 0 0 0 0 0 0 0 0 0 0 0 0 0 0 0 0 0 0 0 0 0 0 0 0 0 0 0 0 0 0 0 0 0 0 0 0 0 0 0 0 0 0 0 0 0 0 0 0 0 0 0 0 0 0 0 0 0 0 0 0 0 0 0 0 0 0 0 0 0 0 0 0 0 0 0 0 0 0 0 0 0 0 0 0 0 0 0 0 0 0 0 0 0 0 0 0 0 0 0 0 0 0 0 0 0 0 0 0 0 0 0 0 0 0 0 0 0 0 0 0 0 0 0 0 0 0 0 0 0 0 0 0 0 0 0 0 0 0 0 0 0 0 0 0 0 0 0 0 0 0 0 0 0 0 0 0 0 0 0 0 0 0 0 0 0 0 0 0 0 0 0 0 0 0 0 0 0 0 0 0 0 0 0 0 0 0 0 0 0 0 0 0 0 0 0 0 0 0 0 0 0 0 0 0 0 0 0 0 0 0 0 0 0 0 0 0 0 0 0 0 0 0 0 0 0 0 0 0 0 0 0 0 0 0 0 0 0 0 0 0 0 0 0 0 0 0 0 0 0 0 0 0 0 0 0 0 0 0 0 0 0 0 0 0 0 0 0 0 0 0 0 0 0 0 0 0 0 0 0 0 0 0 0 0 0 0 0 0 0 0 0 0 0 0 0 0 0 0 0 0 0 0 0 0 0 0 0 0 0 0 0 0 0 0 0 0 0 0 0 0 0 0 0 0 0 0 0 0 0 0 0 0 0 0 0 0 0 0 0 0 0 0 0 0 0 0 0 0 0 0 0 0 0 0 0 0 0 0 0 0 0 0 0 0 0 0 0 0 0 0 0 0 0 0 0 0 0 0 0 0 0 0 0 0 0 0 0 0 0 0 0 0 0 0 0 0 0 0 0 0 0 0 0 0 0 0 0 0 0 0 0 0 0 0 0 0 0 0 0 0 0 0 0 0 0 0 0 0 0 0 0 0 0 0 0 0 0 0 0 0 0 0 0 0 0 0 0 0 0 0 0 0 0 0 0 0 0 0 0 0 0 0 0 0 0 0 0 0 0 0 0 0 0 0 0 0 0 0 0 0 0 0 0 0 0 0 0 0 0 0 0 0 0 0 0 0 0 0 0 0 0 0 0 0 0 0 0 0 0 0 0 0 0 0 0 0 0 0 0 0 0 0 0 0 0 0 0 0 0 0 0 0 0 0 0 0 0 0 0 0 0 0 0 0 0 0 0 0 0 0 0 0 0 0 0 0 0 0 0 0 0 0 0 0 0 0 0 0 0 0 0 0 0 0 0 0 0 0 0 0 0 0 0 0 0 0 0 0 0 0 0 0 0 0 0 0 0 0 0 0 0 0 0 0 0 0 0 0 0 0 0 0 0 0 0 0 0 0 0 0 0 0 0 0 0 0 0 0 0 0 0 0 0 0 0 0 0 0 0 0 0 0 0 0 0 0 0 0 0 0 0 0 0 0 0 0 0 0 0 0 0 0 0 0 0 0 0 0 0 0 0 0 0 0 0 0 0 0 0 0 0 0 0 0 0 0 0 0 0 0 0 0 0 0 0 0 0 0 0 0 0 0 0 0 0 0 0 0 0 0 0 0 0 0 0 0 0 0 0 0 0 0 0 0 0 0 0 0 0 0 0 0 0 0 0 0 0 0 0 0 0 0 0 0 0 0 0 0 0 0 0 0 0 0 0 0 0 0 0 0 0 0 0 0 0 0 0 0 0 0 0 0 0 0 0 0 0 0 0 0 0 0 0 0 0 0 0 0 0 0 0 0 0 0 0 0 0 0 0 0 0 0 0 0 0 0 0 0 0 0 0 0 0 0 0 0 0 0 0 0 0 0 0 0 0 0 0 0 0 0 0 0 0 0 0 0 0 0 0 0 0 0 0 0 0 0 0 0 0 0 0 0 0 0 0 0 0 0 0 0 0 0 0 0 0 0 0 0 0 0 0 0 0 0 0 0 0 0 0 0 0 0 0 0 0 0 0 0 0 0 0 0 0 0 0 0 0 0 0 0 0 0 0 0 0 0 0 0 0 0 0 0 0 0 0 0 0 0 0 0 0 0 0 0 0 0 0 0 0 0 0 0 0 0 0 0 0 0 0 0 0 0 0 0 0 0 0 0 0 0 0 0 0 0 0 0 0 0 0 0 0 0 0 0 0 0 0 0 0 0 0 0 0 0 0 0 0 0 0 0 0 0 0 0 0 0 0 0 0 0 0 0 0 0 0 0 0 0 0 0 0 0 0 0 0 0 0 0 0 0 0 0 0 0 0 0 0 0 0 0 0 0 0 0 0 0 0 0 0 0 0 0 0 0 0 0 0 0 0 0 0 0 0 0 0 0 0 0 0 0 0 0 0 0 0 0 0 0 0 0 0 0 0 0 0 0 0 0 0 0 0 0 0 0 0 0 0 0 0 0 0 0 0 0 0 0 0 0 0 0 0 0 0 0 0 0 0 0 0 0 0 0 0 0 0 0 0 0 0 0 0 0 0 0 0 0 0 0 0 0 0 0 0 0 0 0 0 0 0 0 0 0 0 0 0 0 0 0 0 0 0 0 0 0 0 0 0 0 0 0 0 0 0 0 0 0 0 0 0 0 0 0 0 0 0 0 0 0 0 0 0 0 0 0 0 0 0 0 0 0 0 0 0 0 0 0 0 0 0 0 0 0 0 0 0 0 0 0 0 0 0 0 0 0 0 0 0 0 0 0 0 0 0 0 0 0 0 0 0 0 0 0 0 0 0 0 0 0 0 0 0 0 0 0 0 0 0 0 0 0 0 0 0 0 0 0 0 0 0 0 0 0 0 0 0 0 0 0 0 0 0 0 0 0 0 0 0 0 0 0 0 0 0 0 0 0 0 0 0 0 0 0 0 0 0 0 0 0 0 0 0 0 0 0 0 0 0 0 0 0 0 0 0 0 0 0 0 0 0 0 0 0 0 0 0 0 0 0 0 0 0 0 0 0 0 0 0 0 0 0 0 0 0 0 0 0 0 0 0 0 0 0 0 0 0 0 0 0 0 0 0 0 0 0 0 0 0 0 0 0 0 0 0 0 0 0 0 0 0 0 0 0 0 0 0 0 0 0 0 0 0 0 0 0 0 0 0 0 0 0 0 0 0 0 0 0 0 0 0 0 0 0 0 0 0 0 0 0 0 0 0 0 0 0 0 0 0 0 0 0 0 0 0 0 0 0 0 0 0 0 0 0 0 0 0 0 0 0 0 0 0 0 0 0 0 0 0 0 0 0 0 0 0 0 0 0 0 0 0 0 0 0 0 0 0 0 0 0 0 0 0 0 0 0 0 0 0 0 0 0 0 0 0 0 0 0 0 0 0 0 0 0 0 0 0 0 0 0 0 0 0 0 0 0 0 0 0 0 0 0 0 0 0 0 0 0 0 0 0 0 0 0 0 0 0 0 0 0 0 0 0 0 0 0 0 0 0 0 0 0 0 0 0 0 0 0 0 0 0 0 0 0 0 0 0 0 0 0 0 0 0 0 0 0 0 0 0 0 0 0 0 0 0 0 0 0 0 0 0 0 0 0 0 0 0 0 0 0 0 0 0 0 0 0 0 0 0 0 0 0 0 0 0 0 0 0 0 0 0 0 0 0 0 0 0 0 0 0 0 0 0 0 0 0 0 0 0 0 0 0 0 0 0 0 0 0 0 0 0 0 0 0 0 0 0 0 0 0 0 0 0 0 0 0 0 0 0 0 0 0 0 0 0 0 0 0 0 0 0 0 0 0 0 0 0 0 0 0 0 0 0 0 0 0 0 0 0 0 0 0 0 0 0 0 0 0 0 0 0 0 0 0 0 0 0 0 0 0 0 0 0 0 0 0 0 0 0 0 0 0 0 0 0 0 0 0 0 0 0 0 0 0 0 0 0 0 0 0 0 0 0 0 0 0 0 0 0 0 0 0 0 0 0 0 0 0 0 0 0 0 0 0 0 0 0 0 0 0 0 0 0 0 0 0 0 0 0 0 0 0 0 0 0 0 0 0 0 0 0 0 0 0 0 0 0 0 0 0 0 0 0 0 0 0 0 0 0 0 0 0 0 0 0 0 0 0 0 0 0 0 0 0 0 0 0 0 0 0 0 0 0 0 0 0 0 0 0 0 0 0 0 0 0 0 0 0 0 0 0 0 0 0 0 0 0 0 0 0 0 0 0 0 0 0 0 0 0 0 0 0 0 0 0 0 0 0 0 0 0 0 0 0 0 0 0 0 0 0 0 0 0 0 0 0 0 0 0 0 0 0 0 0 0 0 0 0 0 0 0 0 0 0 0 0 0 0 0 0 0 0 0 0 0 0 0 0 0 0 0 0 0 0 0 0 0 0 0 0 0 0 0 0 0 0 0 0 0 0 0 0 0 0 0 0 0 0 0 0 0 0 0 0 0 0 0 0 0 0 0 0 0 0 0 0 0 0 0 0 0 0 0 0 0 0 0 0 0 0 0 0 0 0 0 0 0 0 0 0 0 0 0 0 0 0 0 0 0 0 0 0 0 0 0 0 0 0 0 0 0 0 0 0 0 0 0 0 0 0 0 0 0 0 0 0 0 0 0 0 0 0 0 0 0 0 0 0 0 0 0 0 0 0 0 0 0 0 0 0 0 0 0 0 0 0 0 0 0 0 0 0 0 0 0 0 0 0 0 0 0 0 0 0 0 0 0 0 0 0 0 0 0 0 0 0 0 0 0 0 0 0 0 0 0 0 0 0 0 0 0 0 0 0 0 0 0 0 0 0 0 0 0 0 0 0 0 0 0 0 0 0 0 0 0 0 0 0 0 0 0 0 0 0 0 0 0 0 0 0 0 0 0 0 0 0 0 0 0 0 0 0 0 0 0 0 0 0 0 0 0 0 0 0 0 0 0 0 0 0 0 0 0 0 0 0 0 0 0 0 0 0 0 0 0 0 0 0 0 0 0 0 0 0 0 0 0 0 0 0 0 0 0 0 0 0 0 0 0 0 0 0 0 0 0 0 0 0 0 0 0 0 0 0 0 0 0 0 0 0 0 0 0 0 0 0 0 0 0 0 0 0 0 0 0 0 0 0 0 0 0 0 0 0 0 0 0 0 0 0 0 0 0 0 0 0 0 0 0 0 0 0 0 0 0 0 0 0 0 0 0 0 0 0 0 0 0 0 0 0 0 0 0 0 0 0 0 0 0 0 0 0 0 0 0 0 0 0 0 0 0 0 0 0 0 0 0 0 0 0 0 0 0 0 0 0 0 0 0 0 0 0 0 0 0 0 0 0 0 0 0 0 0 0 0 0 0 0 0 0 0 0 0 0 0 0 0 0 0 0 0 0 0 0 0 0 0 0 0 0 0 0 0 0 0 0 0 0 0 0 0 0 0 0 0 0 0 0 0 0 0 0 0 0 0 0 0 0 0 0 0 0 0 0 0 0 0 0 0 0 0 0 0 0 0 0 0 0 0 0 0 0 0 0 0 0 0 0 0 0 0 0 0 0 0 0 0 0 0 0 0 0 0 0 0 0 0 0 0 0 0 0 0 0 0 0 0 0 0 0 0 0 0 0 0 0 0 0 0 0 0 0 0 0 0 0 0 0 0 0 0 0 0 0 0 0 0 0 0 0 0 0 0 0 0 0 0 0 0 0 0 0 0 0 0 0 0 0 0 0 0 0 0 0 0 0 0 0 0 0 0 0 0 0 0 0 0 0 0 0 0 0 0 0 0 0 0 0 0 0 0 0 0 0 0 0 0 0 0 0 0 0 0 0 0 0 0 0 0 0 0 0 0 0 0 0 0 0 0 0 0 0 0 0 0 0 0 0 0 0 0 0 0 0 0 0 0 0 0 0 0 0 0 0 0 0 0 0 0 0 0 0 0 0 0 0 0 0 0 0 0 0 0 0 0 0 0 0 0 0 0 0 0 0 0 0 0 0 0 0 0 0 0 0 0 0 0 0 0 0 0 0 0 0 0 0 0 0 0 0 0 0 0 0 0 0 0 0 0 0 0 0 0 0 0 0 0 0 0 0 0 0 0 0 0 0 0 0 0 0 0 0 0 0 0 0 0 0 0 0 0 0 0 0 0 0 0 0 0 0 0 0 0 0 0 0 0 0 0 0 0 0 0 0 0 0 0 0 0 0 0 0 0 0 0 0 0 0 0 0 0 0 0 0 0 0 0 0 0 0 0 0 0 0 0 0 0 0 0 0 0 0 0 0 0 0 0 0 0 0 0 0 0 0 0 0 0 0 0 0 0 0 0 0 0 0 0 0 0 0 0 0 0 0 0 0 0 0 0 0 0 0 0 0 0 0 0 0 0 0 0 0 0 0 0 0 0 0 0 0 0 0 0 0 0 0 0 0 0 0 0 0 0 0 0 0 0 0 0 0 0 0 0 0 0 0 0 0 0 0 0 0 0 0 0 0 0 0 0 0 0 0 0 0 0 0 0 0 0 0 0 0 0 0 0 0 0 0 0 0 0 0 0 0 0 0 0 0 0 0 0 0 0 0 0 0 0 0 0 0 0 0 0 0 0 0 0 0 0 0 0 0 0 0 0 0 0 0 0 0 0 0 0 0 0 0 0 0 0 0 0 0 0 0 0 0 0 0 0 0 0 0 0 0 0 0 0 0 0 0 0 0 0 0 0 0 0 0 0 0 0 0 0 0 0 0 0 0 0 0 0 0 0 0 0 0 0 0 0 0 0 0 0 0 0 0 0 0 0 0 0 0 0 0 0 0 0 0 0 0 0 0 0 0 0 0 0 0 0 0 0 0 0 0 0 0 0 0 0 0 0 0 0 0 0 0 0 0 0 0 0 0 0 0 0 0 0 0 0 0 0 0 0 0 0 0 0 0 0 0 0 0 0 0 0 0 0 0 0 0 0 0 0 0 0 0 0 0 0 0 0 0 0 0 0 0 0 0 0 0 0 0 0 0 0 0 0 0 0 0 0 0 0 0 0 0 0 0 0 0 0 0 0 0 0 0 0 0 0 0 0 0 0 0 0 0 0 0 0 0 0 0 0 0 0 0 0 0 0 0 0 0 0 0 0 0 0 0 0 0 0 0 0 0 0 0 0 0 0 0 0 0 0 0 0 0 0 0 0 0 0 0 0 0 0 0 0 0 0 0 0 0 0 0 0 0 0 0 0 0 0 0 0 0 0 0 0 0 0 0 0 0 0 0 0 0 0 0 0 0 0 0 0 0 0 0 0 0 0 0 0 0 0 0 0 0 0 0 0 0 0 0 0 0 0 0 0 0 0 0 0 0 0 0 0 0 0 0 0 0 0 0 0 0 0 0 0 0 0 0 0 0 0 0 0 0 0 0 0 0 0 0 0 0 0 0 0 0 0 0 0 0 0 0 0 0 0 0 0 0 0 0 0 0 0 0 0 0 0 0 0 0 0 0 0 0 0 0 0 0 0 0 0 0 0 0 0 0 0 0 0 0 0 0 0 0 0 0 0 0 0 0 0 0 0 0 0 0 0 0 0 0 0 0 0 0 0 0 0 0 0 0 0 0 0 0 0 0 0 0 0 0 0 0 0 0 0 0 0 0 0 0 0 0 0 0 0 0 0 0 0 0 0 0 0 0 0 0 0 0 0 0 0 0 0 0 0 0 0 0 0 0 0 0 0 0 0 0 0 0 0 0 0 0 0 0 0 0 0 0 0 0 0 0 0 0 0 0 0 0 0 0 0 0 0 0 0 0 0 0 0 0 0 0 0 0 0 0 0 0 0 0 0 0 0 0 0 0 0 0 0 0 0 0 0 0 0 0 0 0 0 0 0 0 0 0 0 0 0 0 0 0 0 0 0 0 0 



SCALARS ManifoldID int 1
LOOKUP_TABLE default