# vtk DataFile Version 3.0
Triangulation generated with deal.II
ASCII
DATASET UNSTRUCTURED_GRID
POINTS 2176 double
1 0 0
1 1 0
6.12323e-17 1 0
-1 1 0
-1 1.22465e-16 0
-1 -1 0
-1.83697e-16 -1 0
1 -1 0
0.25 0 0
0.176777 0.176777 0
1.53081e-17 0.25 0
-0.176777 0.176777 0
-0.25 3.06162e-17 0
-0.176777 -0.176777 0
-4.59243e-17 -0.25 0
0.176777 -0.176777 0
1 0.5 0
0.625 0 0
0.5 1 0
0.588388 0.588388 0
-0.5 1 0
3.82702e-17 0.625 0
-1 0.5 0
-0.588388 0.588388 0
-1 -0.5 0
-0.625 7.65404e-17 0
-0.5 -1 0
-0.588388 -0.588388 0
0.5 -1 0
-1.14811e-16 -0.625 0
1 -0.5 0
0.588388 -0.588388 0
0.23097 0.0956709 0
0.0956709 0.23097 0
-0.0956709 0.23097 0
-0.23097 0.0956709 0
-0.23097 -0.0956709 0
-0.0956709 -0.23097 0
0.0956709 -0.23097 0
0.23097 -0.0956709 0
0.615485 0.297835 0
0.297835 0.615485 0
-0.297835 0.615485 0
-0.615485 0.297835 0
-0.615485 -0.297835 0
-0.297835 -0.615485 0
0.297835 -0.615485 0
0.615485 -0.297835 0
1 0.25 0
1 0.75 0
0.8125 0 0
0.4375 0 0
0.75 1 0
0.25 1 0
0.794194 0.794194 0
0.382583 0.382583 0
-0.25 1 0
-0.75 1 0
4.97513e-17 0.8125 0
2.67891e-17 0.4375 0
-1 0.75 0
-1 0.25 0
-0.794194 0.794194 0
-0.382583 0.382583 0
-1 -0.25 0
-1 -0.75 0
-0.8125 9.95026e-17 0
-0.4375 5.35783e-17 0
-0.75 -1 0
-0.25 -1 0
-0.794194 -0.794194 0
-0.382583 -0.382583 0
0.25 -1 0
0.75 -1 0
-1.49254e-16 -0.8125 0
-8.03674e-17 -0.4375 0
1 -0.75 0
1 -0.25 0
0.794194 -0.794194 0
0.382583 -0.382583 0
0.245196 0.0487726 0
0.207867 0.138893 0
0.138893 0.207867 0
0.0487726 0.245196 0
-0.0487726 0.245196 0
-0.138893 0.207867 0
-0.207867 0.138893 0
-0.245196 0.0487726 0
-0.245196 -0.0487726 0
-0.207867 -0.138893 0
-0.138893 -0.207867 0
-0.0487726 -0.245196 0
0.0487726 -0.245196 0
0.138893 -0.207867 0
0.207867 -0.138893 0
0.245196 -0.0487726 0
0.807742 0.398918 0
0.423227 0.196753 0
0.620242 0.148918 0
0.601937 0.443112 0
0.398918 0.807742 0
0.196753 0.423227 0
0.443112 0.601937 0
0.148918 0.620242 0
-0.398918 0.807742 0
-0.196753 0.423227 0
-0.148918 0.620242 0
-0.443112 0.601937 0
-0.807742 0.398918 0
-0.423227 0.196753 0
-0.601937 0.443112 0
-0.620242 0.148918 0
-0.807742 -0.398918 0
-0.423227 -0.196753 0
-0.620242 -0.148918 0
-0.601937 -0.443112 0
-0.398918 -0.807742 0
-0.196753 -0.423227 0
-0.443112 -0.601937 0
-0.148918 -0.620242 0
0.398918 -0.807742 0
0.196753 -0.423227 0
0.148918 -0.620242 0
0.443112 -0.601937 0
0.807742 -0.398918 0
0.423227 -0.196753 0
0.601937 -0.443112 0
0.620242 -0.148918 0
0.810121 0.199459 0
0.800968 0.596556 0
0.432719 0.0988451 0
0.404902 0.291002 0
0.596556 0.800968 0
0.199459 0.810121 0
0.291002 0.404902 0
0.0988451 0.432719 0
-0.199459 0.810121 0
-0.596556 0.800968 0
-0.0988451 0.432719 0
-0.291002 0.404902 0
-0.800968 0.596556 0
-0.810121 0.199459 0
-0.404902 0.291002 0
-0.432719 0.0988451 0
-0.810121 -0.199459 0
-0.800968 -0.596556 0
-0.432719 -0.0988451 0
-0.404902 -0.291002 0
-0.596556 -0.800968 0
-0.199459 -0.810121 0
-0.291002 -0.404902 0
-0.0988451 -0.432719 0
0.199459 -0.810121 0
0.596556 -0.800968 0
0.0988451 -0.432719 0
0.291002 -0.404902 0
0.800968 -0.596556 0
0.810121 -0.199459 0
0.404902 -0.291002 0
0.432719 -0.0988451 0
1 0.125 0
1 0.375 0
1 0.625 0
1 0.875 0
0.90625 0 0
0.71875 0 0
0.53125 0 0
0.34375 0 0
0.875 1 0
0.625 1 0
0.375 1 0
0.125 1 0
0.897097 0.897097 0
0.691291 0.691291 0
0.485485 0.485485 0
0.27968 0.27968 0
-0.125 1 0
-0.375 1 0
-0.625 1 0
-0.875 1 0
5.54918e-17 0.90625 0
4.40107e-17 0.71875 0
3.25297e-17 0.53125 0
2.10486e-17 0.34375 0
-1 0.875 0
-1 0.625 0
-1 0.375 0
-1 0.125 0
-0.897097 0.897097 0
-0.691291 0.691291 0
-0.485485 0.485485 0
-0.27968 0.27968 0
-1 -0.125 0
-1 -0.375 0
-1 -0.625 0
-1 -0.875 0
-0.90625 1.10984e-16 0
-0.71875 8.80215e-17 0
-0.53125 6.50594e-17 0
-0.34375 4.20972e-17 0
-0.875 -1 0
-0.625 -1 0
-0.375 -1 0
-0.125 -1 0
-0.897097 -0.897097 0
-0.691291 -0.691291 0
-0.485485 -0.485485 0
-0.27968 -0.27968 0
0.125 -1 0
0.375 -1 0
0.625 -1 0
0.875 -1 0
-1.66475e-16 -0.90625 0
-1.32032e-16 -0.71875 0
-9.7589e-17 -0.53125 0
-6.31459e-17 -0.34375 0
1 -0.875 0
1 -0.625 0
1 -0.375 0
1 -0.125 0
0.897097 -0.897097 0
0.691291 -0.691291 0
0.485485 -0.485485 0
0.27968 -0.27968 0
0.248796 0.0245043 0
0.239235 0.0725712 0
0.22048 0.117849 0
0.193253 0.158598 0
0.158598 0.193253 0
0.117849 0.22048 0
0.0725712 0.239235 0
0.0245043 0.248796 0
-0.0245043 0.248796 0
-0.0725712 0.239235 0
-0.117849 0.22048 0
-0.158598 0.193253 0
-0.193253 0.158598 0
-0.22048 0.117849 0
-0.239235 0.0725712 0
-0.248796 0.0245043 0
-0.248796 -0.0245043 0
-0.239235 -0.0725712 0
-0.22048 -0.117849 0
-0.193253 -0.158598 0
-0.158598 -0.193253 0
-0.117849 -0.22048 0
-0.0725712 -0.239235 0
-0.0245043 -0.248796 0
0.0245043 -0.248796 0
0.0725712 -0.239235 0
0.117849 -0.22048 0
0.158598 -0.193253 0
0.193253 -0.158598 0
0.22048 -0.117849 0
0.239235 -0.0725712 0
0.248796 -0.0245043 0
0.903871 0.449459 0
0.711614 0.348377 0
0.519356 0.247294 0
0.327099 0.146212 0
0.622621 0.0744589 0
0.617864 0.223377 0
0.608711 0.370474 0
0.595162 0.51575 0
0.449459 0.903871 0
0.348377 0.711614 0
0.247294 0.519356 0
0.146212 0.327099 0
0.51575 0.595162 0
0.370474 0.608711 0
0.223377 0.617864 0
0.0744589 0.622621 0
-0.449459 0.903871 0
-0.348377 0.711614 0
-0.247294 0.519356 0
-0.146212 0.327099 0
-0.0744589 0.622621 0
-0.223377 0.617864 0
-0.370474 0.608711 0
-0.51575 0.595162 0
-0.903871 0.449459 0
-0.711614 0.348377 0
-0.519356 0.247294 0
-0.327099 0.146212 0
-0.595162 0.51575 0
-0.608711 0.370474 0
-0.617864 0.223377 0
-0.622621 0.0744589 0
-0.903871 -0.449459 0
-0.711614 -0.348377 0
-0.519356 -0.247294 0
-0.327099 -0.146212 0
-0.622621 -0.0744589 0
-0.617864 -0.223377 0
-0.608711 -0.370474 0
-0.595162 -0.51575 0
-0.449459 -0.903871 0
-0.348377 -0.711614 0
-0.247294 -0.519356 0
-0.146212 -0.327099 0
-0.51575 -0.595162 0
-0.370474 -0.608711 0
-0.223377 -0.617864 0
-0.0744589 -0.622621 0
0.449459 -0.903871 0
0.348377 -0.711614 0
0.247294 -0.519356 0
0.146212 -0.327099 0
0.0744589 -0.622621 0
0.223377 -0.617864 0
0.370474 -0.608711 0
0.51575 -0.595162 0
0.903871 -0.449459 0
0.711614 -0.348377 0
0.519356 -0.247294 0
0.327099 -0.146212 0
0.595162 -0.51575 0
0.608711 -0.370474 0
0.617864 -0.223377 0
0.622621 -0.0744589 0
0.905061 0.224729 0
0.715182 0.174188 0
0.811311 0.0997294 0
0.808932 0.299188 0
0.900484 0.673278 0
0.701452 0.519834 0
0.804355 0.497737 0
0.797581 0.695375 0
0.526481 0.123881 0
0.338958 0.0738089 0
0.43511 0.0494226 0
0.427973 0.147799 0
0.503419 0.367057 0
0.306385 0.214947 0
0.414065 0.243878 0
0.393742 0.336792 0
0.673278 0.900484 0
0.519834 0.701452 0
0.695375 0.797581 0
0.497737 0.804355 0
0.224729 0.905061 0
0.174188 0.715182 0
0.299188 0.808932 0
0.0997294 0.811311 0
0.367057 0.503419 0
0.214947 0.306385 0
0.336792 0.393742 0
0.243878 0.414065 0
0.123881 0.526481 0
0.0738089 0.338958 0
0.147799 0.427973 0
0.0494226 0.43511 0
-0.224729 0.905061 0
-0.174188 0.715182 0
-0.0997294 0.811311 0
-0.299188 0.808932 0
-0.673278 0.900484 0
-0.519834 0.701452 0
-0.497737 0.804355 0
-0.695375 0.797581 0
-0.123881 0.526481 0
-0.0738089 0.338958 0
-0.0494226 0.43511 0
-0.147799 0.427973 0
-0.367057 0.503419 0
-0.214947 0.306385 0
-0.243878 0.414065 0
-0.336792 0.393742 0
-0.900484 0.673278 0
-0.701452 0.519834 0
-0.797581 0.695375 0
-0.804355 0.497737 0
-0.905061 0.224729 0
-0.715182 0.174188 0
-0.808932 0.299188 0
-0.811311 0.0997294 0
-0.503419 0.367057 0
-0.306385 0.214947 0
-0.393742 0.336792 0
-0.414065 0.243878 0
-0.526481 0.123881 0
-0.338958 0.0738089 0
-0.427973 0.147799 0
-0.43511 0.0494226 0
-0.905061 -0.224729 0
-0.715182 -0.174188 0
-0.811311 -0.0997294 0
-0.808932 -0.299188 0
-0.900484 -0.673278 0
-0.701452 -0.519834 0
-0.804355 -0.497737 0
-0.797581 -0.695375 0
-0.526481 -0.123881 0
-0.338958 -0.0738089 0
-0.43511 -0.0494226 0
-0.427973 -0.147799 0
-0.503419 -0.367057 0
-0.306385 -0.214947 0
-0.414065 -0.243878 0
-0.393742 -0.336792 0
-0.673278 -0.900484 0
-0.519834 -0.701452 0
-0.695375 -0.797581 0
-0.497737 -0.804355 0
-0.224729 -0.905061 0
-0.174188 -0.715182 0
-0.299188 -0.808932 0
-0.0997294 -0.811311 0
-0.367057 -0.503419 0
-0.214947 -0.306385 0
-0.336792 -0.393742 0
-0.243878 -0.414065 0
-0.123881 -0.526481 0
-0.0738089 -0.338958 0
-0.147799 -0.427973 0
-0.0494226 -0.43511 0
0.224729 -0.905061 0
0.174188 -0.715182 0
0.0997294 -0.811311 0
0.299188 -0.808932 0
0.673278 -0.900484 0
0.519834 -0.701452 0
0.497737 -0.804355 0
0.695375 -0.797581 0
0.123881 -0.526481 0
0.0738089 -0.338958 0
0.0494226 -0.43511 0
0.147799 -0.427973 0
0.367057 -0.503419 0
0.214947 -0.306385 0
0.243878 -0.414065 0
0.336792 -0.393742 0
0.900484 -0.673278 0
0.701452 -0.519834 0
0.797581 -0.695375 0
0.804355 -0.497737 0
0.905061 -0.224729 0
0.715182 -0.174188 0
0.808932 -0.299188 0
0.811311 -0.0997294 0
0.503419 -0.367057 0
0.306385 -0.214947 0
0.393742 -0.336792 0
0.414065 -0.243878 0
0.526481 -0.123881 0
0.338958 -0.0738089 0
0.427973 -0.147799 0
0.43511 -0.0494226 0
0.905655 0.112365 0
0.904466 0.337094 0
0.716966 0.0870941 0
0.713398 0.261282 0
0.902178 0.561368 0
0.898791 0.785188 0
0.706533 0.434105 0
0.696372 0.605563 0
0.528865 0.0619407 0
0.522919 0.185588 0
0.341953 0.0369634 0
0.333604 0.110185 0
0.511388 0.307176 0
0.494452 0.426271 0
0.317273 0.180863 0
0.293497 0.247695 0
0.785188 0.898791 0
0.561368 0.902178 0
0.605563 0.696372 0
0.434105 0.706533 0
0.337094 0.904466 0
0.112365 0.905655 0
0.261282 0.713398 0
0.0870941 0.716966 0
0.426271 0.494452 0
0.307176 0.511388 0
0.247695 0.293497 0
0.180863 0.317273 0
0.185588 0.522919 0
0.0619407 0.528865 0
0.110185 0.333604 0
0.0369634 0.341953 0
-0.112365 0.905655 0
-0.337094 0.904466 0
-0.0870941 0.716966 0
-0.261282 0.713398 0
-0.561368 0.902178 0
-0.785188 0.898791 0
-0.434105 0.706533 0
-0.605563 0.696372 0
-0.0619407 0.528865 0
-0.185588 0.522919 0
-0.0369634 0.341953 0
-0.110185 0.333604 0
-0.307176 0.511388 0
-0.426271 0.494452 0
-0.180863 0.317273 0
-0.247695 0.293497 0
-0.898791 0.785188 0
-0.902178 0.561368 0
-0.696372 0.605563 0
-0.706533 0.434105 0
-0.904466 0.337094 0
-0.905655 0.112365 0
-0.713398 0.261282 0
-0.716966 0.0870941 0
[...]
CELL_DATA 2176
SCALARS MaterialID int 1
LOOKUP_TABLE default
0 0 0 0 0 0 0 0 0 0 0 0 0 0 0 0 0 0 0 0 0 0 0 0 0 0 0 0 0 0 0 0 0 0 0 0 0 0 0 0 0 0 0 0 0 0 0 0 0 0 0 0 0 0 0 0 0 0 0 0 0 0 0 0 0 0 0 0 0 0 0 0 0 0 0 0 0 0 0 0 0 0 0 0 0 0 0 0 0 0 0 0 0 0 0 0 0 0 0 0 0 0 0 0 0 0 0 0 0 0 0 0 0 0 0 0 0 0 0 0 0 0 0 0 0 0 0 0 0 0 0 0 0 0 0 0 0 0 0 0 0 0 0 0 0 0 0 0 0 0 0 0 0 0 0 0 0 0 0 0 0 0 0 0 0 0 0 0 0 0 0 0 0 0 0 0 0 0 0 0 0 0 0 0 0 0 0 0 0 0 0 0 0 0 0 0 0 0 0 0 0 0 0 0 0 0 0 0 0 0 0 0 0 0 0 0 0 0 0 0 0 0 0 0 0 0 0 0 0 0 0 0 0 0 0 0 0 0 0 0 0 0 0 0 0 0 0 0 0 0 0 0 0 0 0 0 0 0 0 0 0 0 0 0 0 0 0 0 0 0 0 0 0 0 0 0 0 0 0 0 0 0 0 0 0 0 0 0 0 0 0 0 0 0 0 0 0 0 0 0 0 0 0 0 0 0 0 0 0 0 0 0 0 0 0 0 0 0 0 0 0 0 0 0 0 0 0 0 0 0 0 0 0 0 0 0 0 0 0 0 0 0 0 0 0 0 0 0 0 0 0 0 0 0 0 0 0 0 0 0 0 0 0 0 0 0 0 0 0 0 0 0 0 0 0 0 0 0 0 0 0 0 0 0 0 0 0 0 0 0 0 0 0 0 0 0 0 0 0 0 0 0 0 0 0 0 0 0 0 0 0 0 0 0 0 0 0 0 0 0 0 0 0 0 0 0 0 0 0 0 0 0 0 0 0 0 0 0 0 0 0 0 0 0 0 0 0 0 0 0 0 0 0 0 0 0 0 0 0 0 0 0 0 0 0 0 0 0 0 0 0 0 0 0 0 0 0 0 0 0 0 0 0 0 0 0 0 0 0 0 0 0 0 0 0 0 0 0 0 0 0 0 0 0 0 0 0 0 0 0 0 0 0 0 0 0 0 0 0 0 0 0 0 0 0 0 0 0 0 0 0 0 0 0 0 0 0 0 0 0 0 0 0 0 0 0 0 0 0 0 0 0 0 0 0 0 0 0 0 0 0 0 0 0 0 0 0 0 0 0 0 0 0 0 0 0 0 0 0 0 0 0 0 0 0 0 0 0 0 0 0 0 0 0 0 0 0 0 0 0 0 0 0 0 0 0 0 0 0 0 0 0 0 0 0 0 0 0 0 0 0 0 0 0 0 0 0 0 0 0 0 0 0 0 0 0 0 0 0 0 0 0 0 0 0 0 0 0 0 0 0 0 0 0 0 0 0 0 0 0 0 0 0 0 0 0 0 0 0 0 0 0 0 0 0 0 0 0 0 0 0 0 0 0 0 0 0 0 0 0 0 0 0 0 0 0 0 0 0 0 0 0 0 0 0 0 0 0 0 0 0 0 0 0 0 0 0 0 0 0 0 0 0 0 0 0 0 0 0 0 0 0 0 0 0 0 0 0 0 0 0 0 0 0 0 0 0 0 0 0 0 0 0 0 0 0 0 0 0 0 0 0 0 0 0 0 0 0 0 0 0 0 0 0 0 0 0 0 0 0 0 0 0 0 0 0 0 0 0 0 0 0 0 0 0 0 0 0 0 0 0 0 0 0 0 0 0 0 0 0 0 0 0 0 0 0 0 0 0 0 0 0 0 0 0 0 0 0 0 0 0 0 0 0 0 0 0 0 0 0 0 0 0 0 0 0 0 0 0 0 0 0 0 0 0 0 0 0 0 0 0 0 0 0 0 0 0 0 0 0 0 0 0 0 0 0 0 0 0 0 0 0 0 0 0 0 0 0 0 0 0 0 0 0 0 0 0 0 0 0 0 0 0 0 0 0 0 0 0 0 0 0 0 0 0 0 0 0 0 0 0 0 0 0 0 0 0 0 0 0 0 0 0 0 0 0 0 0 0 0 0 0 0 0 0 0 0 0 0 0 0 0 0 0 0 0 0 0 0 0 0 0 0 0 0 0 0 0 0 0 0 0 0 0 0 0 0 0 0 0 0 0 0 0 0 0 0 0 0 0 0 0 0 0 0 0 0 0 0 0 0 0 0 0 0 0 0 0 0 0 0 0 0 0 0 0 0 0 0 0 0 0 0 0 0 0 0 0 0 0 0 0 0 0 0 0 0 0 0 0 0 0 0 0 0 0 0 0 0 0 0 0 0 0 0 0 0 0 0 0 0 0 0 0 0 0 0 0 0 0 0 0 0 0 0 0 0 0 0 0 0 0 0 0 0 0 0 0 0 0 0 0 0 0 0 0 0 0 0 0 0 0 0 0 0 0 0 0 0 0 0 0 0 0 0 0 0 0 0 0 0 0 0 0 0 0 0 0 0 0 0 0 0 0 0 0 0 0 0 0 0 0 0 0 0 0 0 0 0 0 0 0 0 0 0 0 0 0 0 0 0 0 0 0 0 0 0 0 0 0 0 0 0 0 0 0 0 0 0 0 0 0 0 0 0 0 0 0 0 0 0 0 0 0 0 0 0 0 0 0 0 0 0 0 0 0 0 0 0 0 0 0 0 0 0 0 0 0 0 0 0 0 0 0 0 0 0 0 0 0 0 0 0 0 0 0 0 0 0 0 0 0 0 0 0 0 0 0 0 0 0 0 0 0 0 0 0 0 0 0 0 0 0 0 0 0 0 0 0 0 0 0 0 0 0 0 0 0 0 0 0 0 0 0 0 0 0 0 0 0 0 0 0 0 0 0 0 0 0 0 0 0 0 0 0 0 0 0 0 0 0 0 0 0 0 0 0 0 0 0 0 0 0 0 0 0 0 0 0 0 0 0 0 0 0 0 0 0 0 0 0 0 0 0 0 0 0 0 0 0 0 0 0 0 0 0 0 0 0 0 0 0 0 0 0 0 0 0 0 0 0 0 0 0 0 0 0 0 0 0 0 0 0 0 0 0 0 0 0 0 0 0 0 0 0 0 0 0 0 0 0 0 0 0 0 0 0 0 0 0 0 0 0 0 0 0 0 0 0 0 0 0 0 0 0 0 0 0 0 0 0 0 0 0 0 0 0 0 0 0 0 0 0 0 0 0 0 0 0 0 0 0 0 0 0 0 0 0 0 0 0 0 0 0 0 0 0 0 0 0 0 0 0 0 0 0 0 0 0 0 0 0 0 0 0 0 0 0 0 0 0 0 0 0 0 0 0 0 0 0 0 0 0 0 0 0 0 0 0 0 0 0 0 0 0 0 0 0 0 0 0 0 0 0 0 0 0 0 0 0 0 0 0 0 0 0 0 0 0 0 0 0 0 0 0 0 0 0 0 0 0 0 0 0 0 0 0 0 0 0 0 0 0 0 0 0 0 0 0 0 0 0 0 0 0 0 0 0 0 0 0 0 0 0 0 0 0 0 0 0 0 0 0 0 0 0 0 0 0 0 0 0 0 0 0 0 0 0 0 0 0 0 0 0 0 0 0 0 0 0 0 0 0 0 0 0 0 0 0 0 0 0 0 0 0 0 0 0 0 0 0 0 0 0 0 0 0 0 0 0 0 0 0 0 0 0 0 0 0 0 0 0 0 0 0 0 0 0 0 0 0 0 0 0 0 0 0 0 0 0 0 0 0 0 0 0 0 0 0 0 0 0 0 0 0 0 0 0 0 0 0 0 0 0 0 0 0 0 0 0 0 0 0 0 0 0 0 0 0 0 0 0 0 0 0 0 0 0 0 0 0 0 0 0 0 0 0 0 0 0 0 0 0 0 0 0 0 0 0 0 0 0 0 0 0 0 0 0 0 0 0 0 0 0 0 0 0 0 0 0 0 0 0 0 0 0 0 0 0 0 0 0 0 0 0 0 0 0 0 0 0 0 0 0 0 0 0 0 0 0 0 0 0 0 0 0 0 0 0 0 0 0 0 0 0 0 0 0 0 0 0 0 0 0 0 0 0 0 0 0 0 0 0 0 0 0 0 0 0 0 0 0 0 0 0 0 0 0 0 0 0 0 0 0 0 0 0 0 0 0 0 0 0 0 0 0 0 0 0 0 0 0 0 0 0 0 0 0 0 0 0 0 0 0 0 0 0 0 0 0 0 0 0 0 0 0 0 0 0 0 0 0 0 0 0 0 0 0 0 0 0 0 0 0 0 0 0 0 0 0 0 0 0 0 0 0 0 0 0 0 0 0 0 0 0 0 0 0 0 0 0 0 0 0 0 0 0 0 0 0 0 0 0 0 0 0 0 0 0 0 0 0 0 0 0 0 0 0 0 0 0 0 0 0 0 0 0 0 0 0 0 0 0 0 0 0 0 0 0 0 0 0 0 0 0 0 0 0 0 0 0 0 0 0 0 0 0 0 0 0 0 0 0 0 0 0 0 0 0 0 0 0 0 0 0 0 0 0 0 0 0 0 0 0 0 0 0 0 0 0 0 0 0 0 0 0 0 0 
1 1 1 1 1 1 1 1 1 1 1 1 1 1 1 1 1 1 1 1 1 1 1 1 1 1 1 1 1 1 1 1 1 1 1 1 1 1 1 1 1 1 1 1 1 1 1 1 1 1 1 1 1 1 1 1 1 1 1 1 1 1 1 1 1 1 1 1 1 1 1 1 1 1 1 1 1 1 1 1 1 1 1 1 1 1 1 1 1 1 1 1 1 1 1 1 1 1 1 1 1 1 1 1 1 1 1 1 1 1 1 1 1 1 1 1 1 1 1 1 1 1 1 1 1 1 1 1 


SCALARS ManifoldID int 1
LOOKUP_TABLE default
-1 -1 -1 -1 -1 -1 -1 -1 -1 -1 -1 -1 -1 -1 -1 -1 -1 -1 -1 -1 -1 -1 -1 -1 -1 -1 -1 -1 -1 -1 -1 -1 -1 -1 -1 -1 -1 -1 -1 -1 -1 -1 -1 -1 -1 -1 -1 -1 -1 -1 -1 -1 -1 -1 -1 -1 -1 -1 -1 -1 -1 -1 -1 -1 -1 -1 -1 -1 -1 -1 -1 -1 -1 -1 -1 -1 -1 -1 -1 -1 -1 -1 -1 -1 -1 -1 -1 -1 -1 -1 -1 -1 -1 -1 -1 -1 -1 -1 -1 -1 -1 -1 -1 -1 -1 -1 -1 -1 -1 -1 -1 -1 -1 -1 -1 -1 -1 -1 -1 -1 -1 -1 -1 -1 -1 -1 -1 -1 -1 -1 -1 -1 -1 -1 -1 -1 -1 -1 -1 -1 -1 -1 -1 -1 -1 -1 -1 -1 -1 -1 -1 -1 -1 -1 -1 -1 -1 -1 -1 -1 -1 -1 -1 -1 -1 -1 -1 -1 -1 -1 -1 -1 -1 -1 -1 -1 -1 -1 -1 -1 -1 -1 -1 -1 -1 -1 -1 -1 -1 -1 -1 -1 -1 -1 -1 -1 -1 -1 -1 -1 -1 -1 -1 -1 -1 -1 -1 -1 -1 -1 -1 -1 -1 -1 -1 -1 -1 -1 -1 -1 -1 -1 -1 -1 -1 -1 -1 -1 -1 -1 -1 -1 -1 -1 -1 -1 -1 -1 -1 -1 -1 -1 -1 -1 -1 -1 -1 -1 -1 -1 -1 -1 -1 -1 -1 -1 -1 -1 -1 -1 -1 -1 -1 -1 -1 -1 -1 -1 -1 -1 -1 -1 -1 -1 -1 -1 -1 -1 -1 -1 -1 -1 -1 -1 -1 -1 -1 -1 -1 -1 -1 -1 -1 -1 -1 -1 -1 -1 -1 -1 -1 -1 -1 -1 -1 -1 -1 -1 -1 -1 -1 -1 -1 -1 -1 -1 -1 -1 -1 -1 -1 -1 -1 -1 -1 -1 -1 -1 -1 -1 -1 -1 -1 -1 -1 -1 -1 -1 -1 -1 -1 -1 -1 -1 -1 -1 -1 -1 -1 -1 -1 -1 -1 -1 -1 -1 -1 -1 -1 -1 -1 -1 -1 -1 -1 -1 -1 -1 -1 -1 -1 -1 -1 -1 -1 -1 -1 -1 -1 -1 -1 -1 -1 -1 -1 -1 -1 -1 -1 -1 -1 -1 -1 -1 -1 -1 -1 -1 -1 -1 -1 -1 -1 -1 -1 -1 -1 -1 -1 -1 -1 -1 -1 -1 -1 -1 -1 -1 -1 -1 -1 -1 -1 -1 -1 -1 -1 -1 -1 -1 -1 -1 -1 -1 -1 -1 -1 -1 -1 -1 -1 -1 -1 -1 -1 -1 -1 -1 -1 -1 -1 -1 -1 -1 -1 -1 -1 -1 -1 -1 -1 -1 -1 -1 -1 -1 -1 -1 -1 -1 -1 -1 -1 -1 -1 -1 -1 -1 -1 -1 -1 -1 -1 -1 -1 -1 -1 -1 -1 -1 -1 -1 -1 -1 -1 -1 -1 -1 -1 -1 -1 -1 -1 -1 -1 -1 -1 -1 -1 -1 -1 -1 -1 -1 -1 -1 -1 -1 -1 -1 -1 -1 -1 -1 -1 -1 -1 -1 -1 -1 -1 -1 -1 -1 -1 -1 -1 -1 -1 -1 -1 -1 -1 -1 -1 -1 -1 -1 -1 -1 -1 -1 -1 -1 -1 -1 -1 -1 -1 -1 -1 -1 -1 -1 -1 -1 -1 -1 -1 -1 -1 -1 -1 -1 -1 -1 -1 -1 -1 -1 -1 -1 -1 -1 -1 -1 -1 -1 -1 -1 -1 -1 -1 -1 -1 -1 -1 -1 -1 -1 -1 -1 -1 -1 -1 -1 -1 -1 -1 -1 -1 -1 -1 -1 -1 -1 -1 -1 -1 -1 -1 -1 -1 -1 -1 -1 -1 -1 -1 -1 -1 -1 -1 -1 -1 -1 -1 -1 -1 -1 -1 -1 -1 -1 -1 -1 -1 -1 -1 -1 -1 -1 -1 -1 -1 -1 -1 -1 -1 -1 -1 -1 -1 -1 -1 -1 -1 -1 -1 -1 -1 -1 -1 -1 -1 -1 -1 -1 -1 -1 -1 -1 -1 -1 -1 -1 -1 -1 -1 -1 -1 -1 -1 -1 -1 -1 -1 -1 -1 -1 -1 -1 -1 -1 -1 -1 -1 -1 -1 -1 -1 -1 -1 -1 -1 -1 -1 -1 -1 -1 -1 -1 -1 -1 -1 -1 -1 -1 -1 -1 -1 -1 -1 -1 -1 -1 -1 -1 -1 -1 -1 -1 -1 -1 -1 -1 -1 -1 -1 -1 -1 -1 -1 -1 -1 -1 -1 -1 -1 -1 -1 -1 -1 -1 -1 -1 -1 -1 -1 -1 -1 -1 -1 -1 -1 -1 -1 -1 -1 -1 -1 -1 -1 -1 -1 -1 -1 -1 -1 -1 -1 -1 -1 -1 -1 -1 -1 -1 -1 -1 -1 -1 -1 -1 -1 -1 -1 -1 -1 -1 -1 -1 -1 -1 -1 -1 -1 -1 -1 -1 -1 -1 -1 -1 -1 -1 -1 -1 -1 -1 -1 -1 -1 -1 -1 -1 -1 -1 -1 -1 -1 -1 -1 -1 -1 -1 -1 -1 -1 -1 -1 -1 -1 -1 -1 -1 -1 -1 -1 -1 -1 -1 -1 -1 -1 -1 -1 -1 -1 -1 -1 -1 -1 -1 -1 -1 -1 -1 -1 -1 -1 -1 -1 -1 -1 -1 -1 -1 -1 -1 -1 -1 -1 -1 -1 -1 -1 -1 -1 -1 -1 -1 -1 -1 -1 -1 -1 -1 -1 -1 -1 -1 -1 -1 -1 -1 -1 -1 -1 -1 -1 -1 -1 -1 -1 -1 -1 -1 -1 -1 -1 -1 -1 -1 -1 -1 -1 -1 -1 -1 -1 -1 -1 -1 -1 -1 -1 -1 -1 -1 -1 -1 -1 -1 -1 -1 -1 -1 -1 -1 -1 -1 -1 -1 -1 -1 -1 -1 -1 -1 -1 -1 -1 -1 -1 -1 -1 -1 -1 -1 -1 -1 -1 -1 -1 -1 -1 -1 -1 -1 -1 -1 -1 -1 -1 -1 -1 -1 -1 -1 -1 -1 -1 -1 -1 -1 -1 -1 -1 -1 -1 -1 -1 -1 -1 -1 -1 -1 -1 -1 -1 -1 -1 -1 -1 -1 -1 -1 -1 -1 -1 -1 -1 -1 -1 -1 -1 -1 -1 -1 -1 -1 -1 -1 -1 -1 -1 -1 -1 -1 -1 -1 -1 -1 -1 -1 -1 -1 -1 -1 -1 -1 -1 -1 -1 -1 -1 -1 -1 -1 -1 -1 -1 -1 -1 -1 -1 -1 -1 -1 -1 -1 -1 -1 -1 -1 -1 -1 -1 -1 -1 -1 -1 -1 -1 -1 -1 -1 -1 -1 -1 -1 -1 -1 -1 -1 -1 -1 -1 -1 -1 -1 -1 -1 -1 -1 -1 -1 -1 -1 -1 -1 -1 -1 -1 -1 -1 -1 -1 -1 -1 -1 -1 -1 -1 -1 -1 -1 -1 -1 -1 -1 -1 -1 -1 -1 -1 -1 -1 -1 -1 -1 -1 -1 -1 -1 -1 -1 -1 -1 -1 -1 -1 -1 -1 -1 -1 -1 -1 -1 -1 -1 -1 -1 -1 -1 -1 -1 -1 -1 -1 -1 -1 -1 -1 -1 -1 -1 -1 -1 -1 -1 -1 -1 -1 -1 -1 -1 -1 -1 -1 -1 -1 -1 -1 -1 -1 -1 -1 -1 -1 -1 -1 -1 -1 -1 -1 -1 -1 -1 -1 -1 -1 -1 -1 -1 -1 -1 -1 -1 -1 -1 -1 -1 -1 -1 -1 -1 -1 -1 -1 -1 -1 -1 -1 -1 -1 -1 -1 -1 -1 -1 -1 -1 -1 -1 -1 -1 -1 -1 -1 -1 -1 -1 -1 -1 -1 -1 -1 -1 -1 -1 -1 -1 -1 -1 -1 -1 -1 -1 -1 -1 -1 -1 -1 -1 -1 -1 -1 -1 -1 -1 -1 -1 -1 -1 -1 -1 -1 -1 -1 -1 -1 -1 -1 -1 -1 -1 -1 -1 -1 -1 -1 -1 -1 -1 -1 -1 -1 -1 -1 -1 -1 -1 -1 -1 -1 -1 -1 -1 -1 -1 -1 -1 -1 -1 -1 -1 -1 -1 -1 -1 -1 -1 -1 -1 -1 -1 -1 -1 -1 -1 -1 -1 -1 -1 -1 -1 -1 -1 -1 -1 -1 -1 -1 -1 -1 -1 -1 -1 -1 -1 -1 -1 -1 -1 -1 -1 -1 -1 -1 -1 -1 -1 -1 -1 -1 -1 -1 -1 -1 -1 -1 -1 -1 -1 -1 -1 -1 -1 -1 -1 -1 -1 -1 -1 -1 -1 -1 -1 -1 -1 -1 -1 -1 -1 -1 -1 -1 -1 -1 -1 -1 -1 -1 -1 -1 -1 -1 -1 -1 -1 -1 -1 -1 -1 -1 -1 -1 -1 -1 -1 -1 -1 -1 -1 -1 -1 -1 -1 -1 -1 -1 -1 -1 -1 -1 -1 -1 -1 -1 -1 -1 -1 -1 -1 -1 -1 -1 -1 -1 -1 -1 -1 -1 -1 -1 -1 -1 -1 -1 -1 -1 -1 -1 -1 -1 -1 -1 -1 -1 -1 -1 -1 -1 -1 -1 -1 -1 -1 -1 -1 -1 -1 -1 -1 -1 -1 -1 -1 -1 -1 -1 -1 -1 -1 -1 -1 -1 -1 -1 -1 -1 -1 -1 -1 -1 -1 -1 -1 -1 -1 -1 -1 -1 -1 -1 -1 -1 -1 -1 -1 -1 -1 -1 -1 -1 -1 -1 -1 -1 -1 -1 -1 -1 -1 -1 -1 -1 -1 -1 -1 -1 -1 -1 -1 -1 -1 -1 -1 -1 -1 -1 -1 -1 -1 -1 -1 -1 -1 -1 -1 -1 -1 -1 -1 -1 -1 -1 -1 -1 -1 -1 -1 -1 -1 -1 -1 -1 -1 -1 -1 -1 -1 -1 -1 -1 -1 -1 -1 -1 -1 -1 -1 -1 -1 -1 -1 -1 -1 -1 -1 -1 -1 -1 -1 -1 -1 -1 -1 -1 -1 -1 -1 -1 -1 -1 -1 -1 -1 -1 -1 -1 -1 -1 -1 -1 -1 -1 -1 -1 -1 -1 -1 -1 -1 -1 -1 -1 -1 -1 -1 -1 -1 -1 -1 -1 -1 -1 -1 -1 -1 -1 -1 -1 -1 -1 -1 -1 -1 -1 -1 -1 -1 -1 -1 -1 -1 -1 -1 -1 -1 -1 -1 -1 -1 -1 -1 -1 -1 -1 -1 -1 -1 -1 -1 -1 -1 -1 -1 -1 -1 -1 -1 -1 -1 -1 -1 -1 -1 -1 -1 -1 -1 -1 -1 -1 -1 -1 -1 -1 -1 -1 -1 -1 -1 -1 -1 -1 -1 -1 -1 -1 -1 -1 -1 -1 -1 -1 -1 -1 -1 -1 -1 -1 -1 -1 -1 -1 -1 -1 -1 -1 -1 -1 -1 -1 -1 -1 -1 -1 -1 -1 -1 -1 -1 -1 -1 -1 -1 -1 -1 -1 -1 -1 -1 -1 -1 -1 -1 -1 -1 -1 -1 -1 -1 -1 -1 -1 -1 -1 -1 -1 -1 -1 -1 -1 -1 -1 -1 -1 -1 -1 -1 -1 -1 -1 -1 -1 -1 -1 -1 -1 -1 -1 -1 -1 -1 -1 -1 -1 -1 -1 -1 -1 -1 -1 -1 -1 -1 -1 -1 -1 -1 -1 -1 -1 -1 -1 -1 -1 -1 -1 -1 -1 -1 -1 -1 -1 -1 -1 -1 -1 -1 -1 -1 -1 -1 -1 -1 -1 -1 -1 -1 -1 -1 -1 -1 -1 -1 -1 -1 -1 -1 -1 -1 -1 -1 -1 -1 -1 -1 -1 -1 -1 -1 -1 -1 -1 -1 -1 -1 -1 -1 -1 -1 -1 -1 -1 -1 -1 -1 -1 -1 -1 -1 -1 -1 -1 -1 -1 -1 -1 -1 -1 -1 -1 -1 -1 -1 -1 -1 -1 -1 -1 -1 -1 -1 -1 -1 -1 -1 -1 -1 -1 -1 -1 -1 -1 -1 -1 -1 -1 -1 -1 -1 -1 -1 -1 -1 -1 -1 -1 -1 -1 -1 -1 -1 -1 -1 -1 -1 -1 -1 -1 -1 -1 -1 -1 -1 -1 -1 -1 -1 -1 -1 -1 -1 -1 -1 -1 -1 -1 -1 -1 -1 -1 -1 -1 -1 -1 -1 -1 -1 -1 -1 -1 -1 -1 -1 -1 -1 -1 -1 -1 -1 -1 -1 -1 -1 -1 -1 -1 -1 -1 -1 -1 -1 -1 -1 -1 -1 -1 -1 -1 -1 -1 -1 -1 -1 -1 -1 -1 -1 -1 -1 -1 -1 
0 0 0 0 0 0 0 0 0 0 0 0 0 0 0 0 0 0 0 0 0 0 0 0 0 0 0 0 0 0 0 0 0 0 0 0 0 0 0 0 0 0 0 0 0 0 0 0 0 0 0 0 0 0 0 0 0 0 0 0 0 0 0 0 0 0 0 0 0 0 0 0 0 0 0 0 0 0 0 0 0 0 0 0 0 0 0 0 0 0 0 0 0 0 0 0 0 0 0 0 0 0 0 0 0 0 0 0 0 0 0 0 0 0 0 0 0 0 0 0 0 0 0 0 0 0 0 0 

