# vtk DataFile Version 3.0
Triangulation generated with deal.II
ASCII
DATASET UNSTRUCTURED_GRID
POINTS 876 double
548000 5.934e+06 0
548000 5.936e+06 0
548000 5.938e+06 0
548000 5.94e+06 0
548000 5.942e+06 0
550000 5.926e+06 0
550000 5.928e+06 0
550000 5.93e+06 0
550000 5.932e+06 0
550000 5.934e+06 0
550000 5.936e+06 0
550000 5.938e+06 0
550000 5.94e+06 0
550000 5.942e+06 0
550000 5.944e+06 0
552000 5.922e+06 0
552000 5.924e+06 0
552000 5.926e+06 0
552000 5.928e+06 0
552000 5.93e+06 0
552000 5.932e+06 0
552000 5.934e+06 0
552000 5.936e+06 0
552000 5.938e+06 0
552000 5.94e+06 0
552000 5.942e+06 0
552000 5.944e+06 0
554000 5.922e+06 0
554000 5.924e+06 0
554000 5.926e+06 0
554000 5.928e+06 0
554000 5.93e+06 0
554000 5.932e+06 0
554000 5.934e+06 0
554000 5.936e+06 0
554000 5.938e+06 0
554000 5.94e+06 0
554000 5.942e+06 0
556000 5.92e+06 0
556000 5.922e+06 0
556000 5.924e+06 0
556000 5.926e+06 0
556000 5.928e+06 0
556000 5.93e+06 0
556000 5.932e+06 0
556000 5.934e+06 0
556000 5.936e+06 0
556000 5.938e+06 0
556000 5.94e+06 0
556000 5.942e+06 0
558000 5.92e+06 0
558000 5.922e+06 0
558000 5.924e+06 0
558000 5.926e+06 0
558000 5.928e+06 0
558000 5.93e+06 0
558000 5.932e+06 0
558000 5.934e+06 0
558000 5.936e+06 0
558000 5.938e+06 0
558000 5.94e+06 0
558000 5.942e+06 0
558000 5.944e+06 0
558000 5.946e+06 0
560000 5.918e+06 0
560000 5.92e+06 0
560000 5.922e+06 0
560000 5.924e+06 0
560000 5.926e+06 0
560000 5.928e+06 0
560000 5.93e+06 0
560000 5.932e+06 0
560000 5.934e+06 0
560000 5.936e+06 0
560000 5.938e+06 0
560000 5.94e+06 0
560000 5.942e+06 0
560000 5.944e+06 0
560000 5.946e+06 0
562000 5.918e+06 0
562000 5.92e+06 0
562000 5.922e+06 0
562000 5.924e+06 0
562000 5.926e+06 0
562000 5.928e+06 0
562000 5.93e+06 0
562000 5.932e+06 0
562000 5.934e+06 0
562000 5.936e+06 0
562000 5.938e+06 0
562000 5.94e+06 0
562000 5.942e+06 0
562000 5.944e+06 0
562000 5.946e+06 0
564000 5.918e+06 0
564000 5.92e+06 0
564000 5.922e+06 0
564000 5.924e+06 0
564000 5.926e+06 0
564000 5.928e+06 0
564000 5.93e+06 0
564000 5.932e+06 0
564000 5.934e+06 0
564000 5.936e+06 0
564000 5.938e+06 0
564000 5.94e+06 0
564000 5.942e+06 0
564000 5.944e+06 0
564000 5.946e+06 0
564000 5.948e+06 0
564000 5.95e+06 0
566000 5.918e+06 0
566000 5.92e+06 0
566000 5.922e+06 0
566000 5.924e+06 0
566000 5.926e+06 0
566000 5.928e+06 0
566000 5.93e+06 0
566000 5.932e+06 0
566000 5.934e+06 0
566000 5.936e+06 0
566000 5.938e+06 0
566000 5.94e+06 0
566000 5.942e+06 0
566000 5.944e+06 0
566000 5.946e+06 0
566000 5.948e+06 0
566000 5.95e+06 0
568000 5.918e+06 0
568000 5.92e+06 0
568000 5.922e+06 0
568000 5.924e+06 0
568000 5.926e+06 0
568000 5.928e+06 0
568000 5.93e+06 0
568000 5.932e+06 0
568000 5.934e+06 0
568000 5.936e+06 0
568000 5.938e+06 0
568000 5.94e+06 0
568000 5.942e+06 0
568000 5.944e+06 0
568000 5.946e+06 0
568000 5.948e+06 0
568000 5.95e+06 0
570000 5.92e+06 0
570000 5.922e+06 0
570000 5.924e+06 0
570000 5.926e+06 0
570000 5.928e+06 0
570000 5.93e+06 0
570000 5.932e+06 0
570000 5.934e+06 0
570000 5.936e+06 0
570000 5.938e+06 0
570000 5.94e+06 0
570000 5.942e+06 0
570000 5.944e+06 0
570000 5.946e+06 0
570000 5.948e+06 0
570000 5.95e+06 0
570000 5.952e+06 0
570000 5.954e+06 0
572000 5.92e+06 0
572000 5.922e+06 0
572000 5.924e+06 0
572000 5.926e+06 0
572000 5.928e+06 0
572000 5.93e+06 0
572000 5.932e+06 0
572000 5.934e+06 0
572000 5.936e+06 0
572000 5.938e+06 0
572000 5.94e+06 0
572000 5.942e+06 0
572000 5.944e+06 0
572000 5.946e+06 0
572000 5.948e+06 0
572000 5.95e+06 0
572000 5.952e+06 0
572000 5.954e+06 0
574000 5.918e+06 0
574000 5.92e+06 0
574000 5.922e+06 0
574000 5.924e+06 0
574000 5.926e+06 0
574000 5.928e+06 0
574000 5.93e+06 0
574000 5.932e+06 0
574000 5.934e+06 0
574000 5.936e+06 0
574000 5.938e+06 0
574000 5.94e+06 0
574000 5.942e+06 0
574000 5.944e+06 0
574000 5.946e+06 0
574000 5.948e+06 0
574000 5.95e+06 0
574000 5.952e+06 0
574000 5.954e+06 0
574000 5.956e+06 0
576000 5.916e+06 0
576000 5.918e+06 0
576000 5.92e+06 0
576000 5.922e+06 0
576000 5.924e+06 0
576000 5.926e+06 0
576000 5.928e+06 0
576000 5.93e+06 0
576000 5.932e+06 0
576000 5.934e+06 0
576000 5.936e+06 0
576000 5.938e+06 0
576000 5.94e+06 0
576000 5.942e+06 0
576000 5.944e+06 0
576000 5.946e+06 0
576000 5.948e+06 0
576000 5.95e+06 0
576000 5.952e+06 0
576000 5.954e+06 0
576000 5.956e+06 0
578000 5.916e+06 0
578000 5.918e+06 0
578000 5.92e+06 0
578000 5.922e+06 0
578000 5.924e+06 0
578000 5.926e+06 0
578000 5.928e+06 0
578000 5.93e+06 0
578000 5.932e+06 0
578000 5.934e+06 0
578000 5.936e+06 0
578000 5.938e+06 0
578000 5.94e+06 0
578000 5.942e+06 0
578000 5.944e+06 0
578000 5.946e+06 0
578000 5.948e+06 0
578000 5.95e+06 0
578000 5.952e+06 0
578000 5.954e+06 0
578000 5.956e+06 0
580000 5.916e+06 0
580000 5.918e+06 0
580000 5.92e+06 0
580000 5.922e+06 0
580000 5.924e+06 0
580000 5.926e+06 0
580000 5.928e+06 0
580000 5.93e+06 0
580000 5.932e+06 0
580000 5.936e+06 0
580000 5.938e+06 0
580000 5.94e+06 0
580000 5.942e+06 0
580000 5.944e+06 0
580000 5.946e+06 0
580000 5.948e+06 0
580000 5.95e+06 0
580000 5.952e+06 0
580000 5.954e+06 0
580000 5.956e+06 0
582000 5.916e+06 0
582000 5.918e+06 0
582000 5.92e+06 0
582000 5.922e+06 0
582000 5.924e+06 0
582000 5.926e+06 0
582000 5.928e+06 0
582000 5.93e+06 0
582000 5.932e+06 0
582000 5.942e+06 0
582000 5.944e+06 0
584000 5.916e+06 0
584000 5.918e+06 0
584000 5.92e+06 0
584000 5.922e+06 0
584000 5.924e+06 0
584000 5.926e+06 0
584000 5.928e+06 0
584000 5.93e+06 0
586000 5.918e+06 0
586000 5.92e+06 0
586000 5.922e+06 0
586000 5.924e+06 0
586000 5.926e+06 0
588000 5.92e+06 0
588000 5.922e+06 0
588000 5.924e+06 0
590000 5.922e+06 0
590000 5.924e+06 0
548000 5.934e+06 750
548000 5.936e+06 750
548000 5.938e+06 750
548000 5.94e+06 750
548000 5.942e+06 750
550000 5.926e+06 750
550000 5.928e+06 750
550000 5.93e+06 750
550000 5.932e+06 750
550000 5.934e+06 750
550000 5.936e+06 750
550000 5.938e+06 750
550000 5.94e+06 750
550000 5.942e+06 750
550000 5.944e+06 750
552000 5.922e+06 750
552000 5.924e+06 750
552000 5.926e+06 750
552000 5.928e+06 750
552000 5.93e+06 750
552000 5.932e+06 750
552000 5.934e+06 750
552000 5.936e+06 750
552000 5.938e+06 750
552000 5.94e+06 750
552000 5.942e+06 750
552000 5.944e+06 750
554000 5.922e+06 750
554000 5.924e+06 750
554000 5.926e+06 750
554000 5.928e+06 750
554000 5.93e+06 750
554000 5.932e+06 750
554000 5.934e+06 750
554000 5.936e+06 750
554000 5.938e+06 750
554000 5.94e+06 750
554000 5.942e+06 750
556000 5.92e+06 750
556000 5.922e+06 750
556000 5.924e+06 750
556000 5.926e+06 750
556000 5.928e+06 750
556000 5.93e+06 750
556000 5.932e+06 750
556000 5.934e+06 750
556000 5.936e+06 750
556000 5.938e+06 750
556000 5.94e+06 750
556000 5.942e+06 750
558000 5.92e+06 750
558000 5.922e+06 750
558000 5.924e+06 750
558000 5.926e+06 750
558000 5.928e+06 750
558000 5.93e+06 750
558000 5.932e+06 750
558000 5.934e+06 750
558000 5.936e+06 750
558000 5.938e+06 750
558000 5.94e+06 750
558000 5.942e+06 750
558000 5.944e+06 750
558000 5.946e+06 750
560000 5.918e+06 750
560000 5.92e+06 750
560000 5.922e+06 750
560000 5.924e+06 750
560000 5.926e+06 750
560000 5.928e+06 750
560000 5.93e+06 750
560000 5.932e+06 750
560000 5.934e+06 750
560000 5.936e+06 750
560000 5.938e+06 750
560000 5.94e+06 750
560000 5.942e+06 750
560000 5.944e+06 750
560000 5.946e+06 750
562000 5.918e+06 750
562000 5.92e+06 750
562000 5.922e+06 750
562000 5.924e+06 750
562000 5.926e+06 750
562000 5.928e+06 750
562000 5.93e+06 750
562000 5.932e+06 750
562000 5.934e+06 750
562000 5.936e+06 750
562000 5.938e+06 750
562000 5.94e+06 750
562000 5.942e+06 750
562000 5.944e+06 750
562000 5.946e+06 750
564000 5.918e+06 750
564000 5.92e+06 750
564000 5.922e+06 750
564000 5.924e+06 750
564000 5.926e+06 750
564000 5.928e+06 750
564000 5.93e+06 750
564000 5.932e+06 750
564000 5.934e+06 750
564000 5.936e+06 750
564000 5.938e+06 750
564000 5.94e+06 750
564000 5.942e+06 750
564000 5.944e+06 750
564000 5.946e+06 750
564000 5.948e+06 750
564000 5.95e+06 750
566000 5.918e+06 750
566000 5.92e+06 750
566000 5.922e+06 750
566000 5.924e+06 750
566000 5.926e+06 750
566000 5.928e+06 750
566000 5.93e+06 750
566000 5.932e+06 750
566000 5.934e+06 750
566000 5.936e+06 750
566000 5.938e+06 750
566000 5.94e+06 750
566000 5.942e+06 750
566000 5.944e+06 750
566000 5.946e+06 750
566000 5.948e+06 750
566000 5.95e+06 750
568000 5.918e+06 750
568000 5.92e+06 750
568000 5.922e+06 750
568000 5.924e+06 750
568000 5.926e+06 750
568000 5.928e+06 750
568000 5.93e+06 750
568000 5.932e+06 750
568000 5.934e+06 750
568000 5.936e+06 750
568000 5.938e+06 750
568000 5.94e+06 750
568000 5.942e+06 750
568000 5.944e+06 750
568000 5.946e+06 750
568000 5.948e+06 750
568000 5.95e+06 750
570000 5.92e+06 750
570000 5.922e+06 750
570000 5.924e+06 750
570000 5.926e+06 750
570000 5.928e+06 750
570000 5.93e+06 750
570000 5.932e+06 750
570000 5.934e+06 750
570000 5.936e+06 750
570000 5.938e+06 750
570000 5.94e+06 750
570000 5.942e+06 750
570000 5.944e+06 750
570000 5.946e+06 750
570000 5.948e+06 750
570000 5.95e+06 750
570000 5.952e+06 750
570000 5.954e+06 750
572000 5.92e+06 750
572000 5.922e+06 750
572000 5.924e+06 750
572000 5.926e+06 750
572000 5.928e+06 750
572000 5.93e+06 750
572000 5.932e+06 750
572000 5.934e+06 750
572000 5.936e+06 750
572000 5.938e+06 750
572000 5.94e+06 750
572000 5.942e+06 750
572000 5.944e+06 750
572000 5.946e+06 750
572000 5.948e+06 750
572000 5.95e+06 750
572000 5.952e+06 750
572000 5.954e+06 750
574000 5.918e+06 750
574000 5.92e+06 750
574000 5.922e+06 750
574000 5.924e+06 750
574000 5.926e+06 750
574000 5.928e+06 750
574000 5.93e+06 750
574000 5.932e+06 750
574000 5.934e+06 750
574000 5.936e+06 750
574000 5.938e+06 750
574000 5.94e+06 750
574000 5.942e+06 750
574000 5.944e+06 750
574000 5.946e+06 750
574000 5.948e+06 750
574000 5.95e+06 750
574000 5.952e+06 750
574000 5.954e+06 750
574000 5.956e+06 750
576000 5.916e+06 750
576000 5.918e+06 750
576000 5.92e+06 750
576000 5.922e+06 750
576000 5.924e+06 750
576000 5.926e+06 750
576000 5.928e+06 750
576000 5.93e+06 750
576000 5.932e+06 750
576000 5.934e+06 750
[...]
CELL_DATA 976
SCALARS MaterialID int 1
LOOKUP_TABLE default
0 0 0 0 0 0 0 0 0 0 0 0 0 0 0 0 0 0 0 0 0 0 0 0 0 0 0 0 0 0 0 0 0 0 0 0 0 0 0 0 0 0 0 0 0 0 0 0 0 0 0 0 0 0 0 0 0 0 0 0 0 0 0 0 0 0 0 0 0 0 0 0 0 0 0 0 0 0 0 0 0 0 0 0 0 0 0 0 0 0 0 0 0 0 0 0 0 0 0 0 0 0 0 0 0 0 0 0 0 0 0 0 0 0 0 0 0 0 0 0 0 0 0 0 0 0 0 0 0 0 0 0 0 0 0 0 0 0 0 0 0 0 0 0 0 0 0 0 0 0 0 0 0 0 0 0 0 0 0 0 0 0 0 0 0 0 0 0 0 0 0 0 0 0 0 0 0 0 0 0 0 0 0 0 0 0 0 0 0 0 0 0 0 0 0 0 0 0 0 0 0 0 0 0 0 0 0 0 0 0 0 0 0 0 0 0 0 0 0 0 0 0 0 0 0 0 0 0 0 0 0 0 0 0 0 0 0 0 0 0 0 0 0 0 0 0 0 0 0 0 0 0 0 0 0 0 0 0 0 0 0 0 0 0 0 0 0 0 0 0 0 0 0 0 0 0 0 0 0 0 0 0 0 0 0 0 0 0 0 0 0 0 0 0 0 0 0 0 0 0 0 0 0 0 0 0 0 0 0 0 0 0 0 0 0 0 0 0 0 0 0 0 0 0 0 0 0 0 0 0 0 0 0 0 0 0 0 0 0 0 0 0 0 0 0 0 0 0 0 0 0 0 0 0 0 0 0 0 0 0 0 0 0 0 0 0 0 0 0 0 0 0 0 0 0 0 0 0 0 0 0 0 0 0 0 0 0 0 0 0 0 0 0 0 0 0 0 0 0 0 0 0 0 0 0 0 0 0 0 0 0 0 0 0 0 0 0 0 0 0 0 0 0 0 0 0 0 0 0 0 0 0 0 0 0 0 0 0 0 0 0 0 0 0 0 0 0 0 0 0 0 0 0 0 0 0 0 0 0 0 0 0 0 0 0 0 0 0 0 0 0 0 0 0 0 0 0 0 0 0 0 0 0 0 0 0 0 0 
1 1 1 1 1 1 1 1 1 1 1 1 1 1 1 1 1 1 1 1 1 1 1 1 1 1 1 1 1 1 1 1 1 1 1 1 1 1 1 1 1 1 1 1 1 1 1 1 1 1 1 1 1 1 1 1 1 1 1 1 1 1 1 1 1 1 1 1 1 1 1 1 1 1 1 1 1 1 1 1 1 1 1 1 1 1 1 1 1 1 1 1 1 1 1 1 1 1 1 1 1 1 1 1 1 1 1 1 1 1 1 1 1 1 1 1 1 1 1 1 1 1 1 1 1 1 1 1 1 1 1 1 1 1 1 1 1 1 1 1 1 1 1 1 1 1 1 1 1 1 1 1 1 1 1 1 1 1 1 1 1 1 1 1 1 1 1 1 1 1 1 1 1 1 1 1 1 1 1 1 1 1 1 1 1 1 1 1 1 1 1 1 1 1 1 1 1 1 1 1 1 1 1 1 1 1 1 1 1 1 1 1 1 1 1 1 1 1 1 1 1 1 1 1 1 1 1 1 1 1 1 1 1 1 1 1 1 1 1 1 1 1 1 1 2 2 2 2 2 2 2 2 2 2 2 2 2 2 2 2 2 2 2 2 2 2 2 2 2 2 2 2 2 2 2 2 2 2 2 2 2 2 2 2 2 2 2 2 2 2 2 2 2 2 2 2 2 2 2 2 2 2 2 2 2 2 2 2 2 2 2 2 2 2 2 2 2 2 2 2 2 2 2 2 2 2 2 2 2 2 2 2 2 2 2 2 2 2 2 2 2 2 2 2 2 2 2 2 2 2 2 2 2 2 2 2 2 2 2 2 2 2 2 2 2 2 2 2 2 2 2 2 2 2 2 2 2 2 2 2 2 2 2 2 2 2 2 2 2 2 2 2 2 2 2 2 2 2 2 2 2 2 2 2 2 2 2 2 2 2 2 2 2 2 2 2 2 2 2 2 2 2 2 2 2 2 2 2 2 2 2 2 2 2 2 2 2 2 2 2 2 2 2 2 2 2 2 2 2 2 2 2 2 2 2 2 2 2 2 2 2 2 2 2 2 2 2 2 2 2 2 2 2 2 2 2 2 2 2 2 2 2 2 2 2 2 2 2 


SCALARS ManifoldID int 1
LOOKUP_TABLE default
-1 -1 -1 -1 -1 -1 -1 -1 -1 -1 -1 -1 -1 -1 -1 -1 -1 -1 -1 -1 -1 -1 -1 -1 -1 -1 -1 -1 -1 -1 -1 -1 -1 -1 -1 -1 -1 -1 -1 -1 -1 -1 -1 -1 -1 -1 -1 -1 -1 -1 -1 -1 -1 -1 -1 -1 -1 -1 -1 -1 -1 -1 -1 -1 -1 -1 -1 -1 -1 -1 -1 -1 -1 -1 -1 -1 -1 -1 -1 -1 -1 -1 -1 -1 -1 -1 -1 -1 -1 -1 -1 -1 -1 -1 -1 -1 -1 -1 -1 -1 -1 -1 -1 -1 -1 -1 -1 -1 -1 -1 -1 -1 -1 -1 -1 -1 -1 -1 -1 -1 -1 -1 -1 -1 -1 -1 -1 -1 -1 -1 -1 -1 -1 -1 -1 -1 -1 -1 -1 -1 -1 -1 -1 -1 -1 -1 -1 -1 -1 -1 -1 -1 -1 -1 -1 -1 -1 -1 -1 -1 -1 -1 -1 -1 -1 -1 -1 -1 -1 -1 -1 -1 -1 -1 -1 -1 -1 -1 -1 -1 -1 -1 -1 -1 -1 -1 -1 -1 -1 -1 -1 -1 -1 -1 -1 -1 -1 -1 -1 -1 -1 -1 -1 -1 -1 -1 -1 -1 -1 -1 -1 -1 -1 -1 -1 -1 -1 -1 -1 -1 -1 -1 -1 -1 -1 -1 -1 -1 -1 -1 -1 -1 -1 -1 -1 -1 -1 -1 -1 -1 -1 -1 -1 -1 -1 -1 -1 -1 -1 -1 -1 -1 -1 -1 -1 -1 -1 -1 -1 -1 -1 -1 -1 -1 -1 -1 -1 -1 -1 -1 -1 -1 -1 -1 -1 -1 -1 -1 -1 -1 -1 -1 -1 -1 -1 -1 -1 -1 -1 -1 -1 -1 -1 -1 -1 -1 -1 -1 -1 -1 -1 -1 -1 -1 -1 -1 -1 -1 -1 -1 -1 -1 -1 -1 -1 -1 -1 -1 -1 -1 -1 -1 -1 -1 -1 -1 -1 -1 -1 -1 -1 -1 -1 -1 -1 -1 -1 -1 -1 -1 -1 -1 -1 -1 -1 -1 -1 -1 -1 -1 -1 -1 -1 -1 -1 -1 -1 -1 -1 -1 -1 -1 -1 -1 -1 -1 -1 -1 -1 -1 -1 -1 -1 -1 -1 -1 -1 -1 -1 -1 -1 -1 -1 -1 -1 -1 -1 -1 -1 -1 -1 -1 -1 -1 -1 -1 -1 -1 -1 -1 -1 -1 -1 -1 -1 -1 -1 -1 -1 -1 -1 -1 -1 -1 -1 -1 -1 -1 -1 -1 -1 -1 -1 -1 -1 -1 -1 -1 -1 -1 -1 -1 -1 -1 -1 -1 -1 -1 -1 -1 -1 -1 -1 -1 -1 -1 -1 -1 -1 -1 -1 -1 -1 -1 -1 -1 -1 -1 -1 -1 -1 -1 -1 -1 -1 -1 -1 -1 -1 -1 -1 -1 -1 -1 -1 -1 -1 -1 -1 -1 -1 -1 -1 -1 -1 -1 -1 -1 
-1 -1 -1 -1 -1 -1 -1 -1 -1 -1 -1 -1 -1 -1 -1 -1 -1 -1 -1 -1 -1 -1 -1 -1 -1 -1 -1 -1 -1 -1 -1 -1 -1 -1 -1 -1 -1 -1 -1 -1 -1 -1 -1 -1 -1 -1 -1 -1 -1 -1 -1 -1 -1 -1 -1 -1 -1 -1 -1 -1 -1 -1 -1 -1 -1 -1 -1 -1 -1 -1 -1 -1 -1 -1 -1 -1 -1 -1 -1 -1 -1 -1 -1 -1 -1 -1 -1 -1 -1 -1 -1 -1 -1 -1 -1 -1 -1 -1 -1 -1 -1 -1 -1 -1 -1 -1 -1 -1 -1 -1 -1 -1 -1 -1 -1 -1 -1 -1 -1 -1 -1 -1 -1 -1 -1 -1 -1 -1 -1 -1 -1 -1 -1 -1 -1 -1 -1 -1 -1 -1 -1 -1 -1 -1 -1 -1 -1 -1 -1 -1 -1 -1 -1 -1 -1 -1 -1 -1 -1 -1 -1 -1 -1 -1 -1 -1 -1 -1 -1 -1 -1 -1 -1 -1 -1 -1 -1 -1 -1 -1 -1 -1 -1 -1 -1 -1 -1 -1 -1 -1 -1 -1 -1 -1 -1 -1 -1 -1 -1 -1 -1 -1 -1 -1 -1 -1 -1 -1 -1 -1 -1 -1 -1 -1 -1 -1 -1 -1 -1 -1 -1 -1 -1 -1 -1 -1 -1 -1 -1 -1 -1 -1 -1 -1 -1 -1 -1 -1 -1 -1 -1 -1 -1 -1 -1 -1 -1 -1 -1 -1 -1 -1 -1 -1 -1 -1 -1 -1 -1 -1 -1 -1 -1 -1 -1 -1 -1 -1 -1 -1 -1 -1 -1 -1 -1 -1 -1 -1 -1 -1 -1 -1 -1 -1 -1 -1 -1 -1 -1 -1 -1 -1 -1 -1 -1 -1 -1 -1 -1 -1 -1 -1 -1 -1 -1 -1 -1 -1 -1 -1 -1 -1 -1 -1 -1 -1 -1 -1 -1 -1 -1 -1 -1 -1 -1 -1 -1 -1 -1 -1 -1 -1 -1 -1 -1 -1 -1 -1 -1 -1 -1 -1 -1 -1 -1 -1 -1 -1 -1 -1 -1 -1 -1 -1 -1 -1 -1 -1 -1 -1 -1 -1 -1 -1 -1 -1 -1 -1 -1 -1 -1 -1 -1 -1 -1 -1 -1 -1 -1 -1 -1 -1 -1 -1 -1 -1 -1 -1 -1 -1 -1 -1 -1 -1 -1 -1 -1 -1 -1 -1 -1 -1 -1 -1 -1 -1 -1 -1 -1 -1 -1 -1 -1 -1 -1 -1 -1 -1 -1 -1 -1 -1 -1 -1 -1 -1 -1 -1 -1 -1 -1 -1 -1 -1 -1 -1 -1 -1 -1 -1 -1 -1 -1 -1 -1 -1 -1 -1 -1 -1 -1 -1 -1 -1 -1 -1 -1 -1 -1 -1 -1 -1 -1 -1 -1 -1 -1 -1 -1 -1 -1 -1 -1 -1 -1 -1 -1 -1 -1 -1 -1 -1 -1 -1 -1 -1 -1 -1 

