# vtk DataFile Version 3.0
Triangulation generated with deal.II
ASCII
DATASET UNSTRUCTURED_GRID
POINTS 292 double
548000 5.934e+06 0
548000 5.936e+06 0
548000 5.938e+06 0
548000 5.94e+06 0
548000 5.942e+06 0
550000 5.926e+06 0
550000 5.928e+06 0
550000 5.93e+06 0
550000 5.932e+06 0
550000 5.934e+06 0
550000 5.936e+06 0
550000 5.938e+06 0
550000 5.94e+06 0
550000 5.942e+06 0
550000 5.944e+06 0
552000 5.922e+06 0
552000 5.924e+06 0
552000 5.926e+06 0
552000 5.928e+06 0
552000 5.93e+06 0
552000 5.932e+06 0
552000 5.934e+06 0
552000 5.936e+06 0
552000 5.938e+06 0
552000 5.94e+06 0
552000 5.942e+06 0
552000 5.944e+06 0
554000 5.922e+06 0
554000 5.924e+06 0
554000 5.926e+06 0
554000 5.928e+06 0
554000 5.93e+06 0
554000 5.932e+06 0
554000 5.934e+06 0
554000 5.936e+06 0
554000 5.938e+06 0
554000 5.94e+06 0
554000 5.942e+06 0
556000 5.92e+06 0
556000 5.922e+06 0
556000 5.924e+06 0
556000 5.926e+06 0
556000 5.928e+06 0
556000 5.93e+06 0
556000 5.932e+06 0
556000 5.934e+06 0
556000 5.936e+06 0
556000 5.938e+06 0
556000 5.94e+06 0
556000 5.942e+06 0
558000 5.92e+06 0
558000 5.922e+06 0
558000 5.924e+06 0
558000 5.926e+06 0
558000 5.928e+06 0
558000 5.93e+06 0
558000 5.932e+06 0
558000 5.934e+06 0
558000 5.936e+06 0
558000 5.938e+06 0
558000 5.94e+06 0
558000 5.942e+06 0
558000 5.944e+06 0
558000 5.946e+06 0
560000 5.918e+06 0
560000 5.92e+06 0
560000 5.922e+06 0
560000 5.924e+06 0
560000 5.926e+06 0
560000 5.928e+06 0
560000 5.93e+06 0
560000 5.932e+06 0
560000 5.934e+06 0
560000 5.936e+06 0
560000 5.938e+06 0
560000 5.94e+06 0
560000 5.942e+06 0
560000 5.944e+06 0
560000 5.946e+06 0
562000 5.918e+06 0
562000 5.92e+06 0
562000 5.922e+06 0
562000 5.924e+06 0
562000 5.926e+06 0
562000 5.928e+06 0
562000 5.93e+06 0
562000 5.932e+06 0
562000 5.934e+06 0
562000 5.936e+06 0
562000 5.938e+06 0
562000 5.94e+06 0
562000 5.942e+06 0
562000 5.944e+06 0
562000 5.946e+06 0
564000 5.918e+06 0
564000 5.92e+06 0
564000 5.922e+06 0
564000 5.924e+06 0
564000 5.926e+06 0
564000 5.928e+06 0
564000 5.93e+06 0
564000 5.932e+06 0
564000 5.934e+06 0
564000 5.936e+06 0
564000 5.938e+06 0
564000 5.94e+06 0
564000 5.942e+06 0
564000 5.944e+06 0
564000 5.946e+06 0
564000 5.948e+06 0
564000 5.95e+06 0
566000 5.918e+06 0
566000 5.92e+06 0
566000 5.922e+06 0
566000 5.924e+06 0
566000 5.926e+06 0
566000 5.928e+06 0
566000 5.93e+06 0
566000 5.932e+06 0
566000 5.934e+06 0
566000 5.936e+06 0
566000 5.938e+06 0
566000 5.94e+06 0
566000 5.942e+06 0
566000 5.944e+06 0
566000 5.946e+06 0
566000 5.948e+06 0
566000 5.95e+06 0
568000 5.918e+06 0
568000 5.92e+06 0
568000 5.922e+06 0
568000 5.924e+06 0
568000 5.926e+06 0
568000 5.928e+06 0
568000 5.93e+06 0
568000 5.932e+06 0
568000 5.934e+06 0
568000 5.936e+06 0
568000 5.938e+06 0
568000 5.94e+06 0
568000 5.942e+06 0
568000 5.944e+06 0
568000 5.946e+06 0
568000 5.948e+06 0
568000 5.95e+06 0
570000 5.92e+06 0
570000 5.922e+06 0
570000 5.924e+06 0
570000 5.926e+06 0
570000 5.928e+06 0
570000 5.93e+06 0
570000 5.932e+06 0
570000 5.934e+06 0
570000 5.936e+06 0
570000 5.938e+06 0
570000 5.94e+06 0
570000 5.942e+06 0
570000 5.944e+06 0
570000 5.946e+06 0
570000 5.948e+06 0
570000 5.95e+06 0
570000 5.952e+06 0
570000 5.954e+06 0
572000 5.92e+06 0
572000 5.922e+06 0
572000 5.924e+06 0
572000 5.926e+06 0
572000 5.928e+06 0
572000 5.93e+06 0
572000 5.932e+06 0
572000 5.934e+06 0
572000 5.936e+06 0
572000 5.938e+06 0
572000 5.94e+06 0
572000 5.942e+06 0
572000 5.944e+06 0
572000 5.946e+06 0
572000 5.948e+06 0
572000 5.95e+06 0
572000 5.952e+06 0
572000 5.954e+06 0
574000 5.918e+06 0
574000 5.92e+06 0
574000 5.922e+06 0
574000 5.924e+06 0
574000 5.926e+06 0
574000 5.928e+06 0
574000 5.93e+06 0
574000 5.932e+06 0
574000 5.934e+06 0
574000 5.936e+06 0
574000 5.938e+06 0
574000 5.94e+06 0
574000 5.942e+06 0
574000 5.944e+06 0
574000 5.946e+06 0
574000 5.948e+06 0
574000 5.95e+06 0
574000 5.952e+06 0
574000 5.954e+06 0
574000 5.956e+06 0
576000 5.916e+06 0
576000 5.918e+06 0
576000 5.92e+06 0
576000 5.922e+06 0
576000 5.924e+06 0
576000 5.926e+06 0
576000 5.928e+06 0
576000 5.93e+06 0
576000 5.932e+06 0
576000 5.934e+06 0
576000 5.936e+06 0
576000 5.938e+06 0
576000 5.94e+06 0
576000 5.942e+06 0
576000 5.944e+06 0
576000 5.946e+06 0
576000 5.948e+06 0
576000 5.95e+06 0
576000 5.952e+06 0
576000 5.954e+06 0
576000 5.956e+06 0
578000 5.916e+06 0
578000 5.918e+06 0
578000 5.92e+06 0
578000 5.922e+06 0
578000 5.924e+06 0
578000 5.926e+06 0
578000 5.928e+06 0
578000 5.93e+06 0
578000 5.932e+06 0
578000 5.934e+06 0
578000 5.936e+06 0
578000 5.938e+06 0
578000 5.94e+06 0
578000 5.942e+06 0
578000 5.944e+06 0
578000 5.946e+06 0
578000 5.948e+06 0
578000 5.95e+06 0
578000 5.952e+06 0
578000 5.954e+06 0
578000 5.956e+06 0
580000 5.916e+06 0
580000 5.918e+06 0
580000 5.92e+06 0
580000 5.922e+06 0
580000 5.924e+06 0
580000 5.926e+06 0
580000 5.928e+06 0
580000 5.93e+06 0
580000 5.932e+06 0
580000 5.936e+06 0
580000 5.938e+06 0
580000 5.94e+06 0
580000 5.942e+06 0
580000 5.944e+06 0
580000 5.946e+06 0
580000 5.948e+06 0
580000 5.95e+06 0
580000 5.952e+06 0
580000 5.954e+06 0
580000 5.956e+06 0
582000 5.916e+06 0
582000 5.918e+06 0
582000 5.92e+06 0
582000 5.922e+06 0
582000 5.924e+06 0
582000 5.926e+06 0
582000 5.928e+06 0
582000 5.93e+06 0
582000 5.932e+06 0
582000 5.942e+06 0
582000 5.944e+06 0
584000 5.916e+06 0
584000 5.918e+06 0
584000 5.92e+06 0
584000 5.922e+06 0
584000 5.924e+06 0
584000 5.926e+06 0
584000 5.928e+06 0
584000 5.93e+06 0
586000 5.918e+06 0
586000 5.92e+06 0
586000 5.922e+06 0
586000 5.924e+06 0
586000 5.926e+06 0
588000 5.92e+06 0
588000 5.922e+06 0
588000 5.924e+06 0
590000 5.922e+06 0
590000 5.924e+06 0

CELLS 244 1220
4 0 9 10 1
4 1 10 11 2
4 2 11 12 3
4 3 12 13 4
4 5 17 18 6
4 6 18 19 7
4 7 19 20 8
4 8 20 21 9
4 9 21 22 10
4 10 22 23 11
4 11 23 24 12
4 12 24 25 13
4 13 25 26 14
4 15 27 28 16
4 16 28 29 17
4 17 29 30 18
4 18 30 31 19
4 19 31 32 20
4 20 32 33 21
4 21 33 34 22
4 22 34 35 23
4 23 35 36 24
4 24 36 37 25
4 27 39 40 28
4 28 40 41 29
4 29 41 42 30
4 30 42 43 31
4 31 43 44 32
4 32 44 45 33
4 33 45 46 34
4 34 46 47 35
4 35 47 48 36
4 38 50 51 39
4 39 51 52 40
4 40 52 53 41
4 41 53 54 42
4 42 54 55 43
4 43 55 56 44
4 44 56 57 45
4 45 57 58 46
4 46 58 59 47
4 47 59 60 48
4 48 60 61 49
4 50 65 66 51
4 51 66 67 52
4 52 67 68 53
4 53 68 69 54
4 54 69 70 55
4 55 70 71 56
4 56 71 72 57
4 57 72 73 58
4 58 73 74 59
4 59 74 75 60
4 60 75 76 61
4 61 76 77 62
4 62 77 78 63
4 64 79 80 65
4 65 80 81 66
4 66 81 82 67
4 67 82 83 68
4 68 83 84 69
4 69 84 85 70
4 70 85 86 71
4 71 86 87 72
4 72 87 88 73
4 73 88 89 74
4 74 89 90 75
4 75 90 91 76
4 76 91 92 77
4 77 92 93 78
4 79 94 95 80
4 80 95 96 81
4 81 96 97 82
4 82 97 98 83
4 83 98 99 84
4 84 99 100 85
4 85 100 101 86
4 86 101 102 87
4 87 102 103 88
4 88 103 104 89
4 89 104 105 90
4 90 105 106 91
4 91 106 107 92
4 92 107 108 93
4 94 111 112 95
4 95 112 113 96
4 96 113 114 97
4 97 114 115 98
4 98 115 116 99
4 99 116 117 100
4 100 117 118 101
4 101 118 119 102
4 102 119 120 103
4 103 120 121 104
4 104 121 122 105
4 105 122 123 106
4 106 123 124 107
4 107 124 125 108
4 108 125 126 109
4 109 126 127 110
4 111 128 129 112
4 112 129 130 113
4 113 130 131 114
4 114 131 132 115
4 115 132 133 116
4 116 133 134 117
4 117 134 135 118
4 118 135 136 119
4 119 136 137 120
4 120 137 138 121
4 121 138 139 122
4 122 139 140 123
4 123 140 141 124
4 124 141 142 125
4 125 142 143 126
4 126 143 144 127
4 129 145 146 130
4 130 146 147 131
4 131 147 148 132
4 132 148 149 133
4 133 149 150 134
4 134 150 151 135
4 135 151 152 136
4 136 152 153 137
4 137 153 154 138
4 138 154 155 139
4 139 155 156 140
4 140 156 157 141
4 141 157 158 142
4 142 158 159 143
4 143 159 160 144
4 145 163 164 146
4 146 164 165 147
4 147 165 166 148
4 148 166 167 149
4 149 167 168 150
4 150 168 169 151
4 151 169 170 152
4 152 170 171 153
4 153 171 172 154
4 154 172 173 155
4 155 173 174 156
4 156 174 175 157
4 157 175 176 158
4 158 176 177 159
4 159 177 178 160
4 160 178 179 161
4 161 179 180 162
4 163 182 183 164
4 164 183 184 165
4 165 184 185 166
4 166 185 186 167
4 167 186 187 168
4 168 187 188 169
4 169 188 189 170
4 170 189 190 171
4 171 190 191 172
4 172 191 192 173
4 173 192 193 174
4 174 193 194 175
4 175 194 195 176
4 176 195 196 177
4 177 196 197 178
4 178 197 198 179
4 179 198 199 180
4 181 202 203 182
4 182 203 204 183
4 183 204 205 184
4 184 205 206 185
4 185 206 207 186
4 186 207 208 187
4 187 208 209 188
4 188 209 210 189
4 189 210 211 190
4 190 211 212 191
4 191 212 213 192
4 192 213 214 193
4 193 214 215 194
4 194 215 216 195
4 195 216 217 196
4 196 217 218 197
4 197 218 219 198
4 198 219 220 199
4 199 220 221 200
4 201 222 223 202
4 202 223 224 203
4 203 224 225 204
4 204 225 226 205
4 205 226 227 206
4 206 227 228 207
4 207 228 229 208
4 208 229 230 209
4 209 230 231 210
4 210 231 232 211
4 211 232 233 212
4 212 233 234 213
4 213 234 235 214
4 214 235 236 215
4 215 236 237 216
4 216 237 238 217
4 217 238 239 218
4 218 239 240 219
4 219 240 241 220
4 220 241 242 221
4 222 243 244 223
4 223 244 245 224
4 224 245 246 225
4 225 246 247 226
4 226 247 248 227
4 227 248 249 228
4 228 249 250 229
4 229 250 251 230
4 232 252 253 233
4 233 253 254 234
4 234 254 255 235
4 235 255 256 236
4 236 256 257 237
4 237 257 258 238
4 239 259 260 240
4 240 260 261 241
4 241 261 262 242
4 243 263 264 244
4 244 264 265 245
4 245 265 266 246
4 246 266 267 247
4 247 267 268 248
4 248 268 269 249
4 249 269 270 250
4 250 270 271 251
4 255 272 273 256
4 263 274 275 264
4 264 275 276 265
4 265 276 277 266
4 266 277 278 267
4 267 278 279 268
4 268 279 280 269
4 269 280 281 270
4 275 282 283 276
4 276 283 284 277
4 277 284 285 278
4 278 285 286 279
4 283 287 288 284
4 284 288 289 285
4 288 290 291 289

CELL_TYPES 244
9 9 9 9 9 9 9 9 9 9 9 9 9 9 9 9 9 9 9 9 9 9 9 9 9 9 9 9 9 9 9 9 9 9 9 9 9 9 9 9 9 9 9 9 9 9 9 9 9 9 9 9 9 9 9 9 9 9 9 9 9 9 9 9 9 9 9 9 9 9 9 9 9 9 9 9 9 9 9 9 9 9 9 9 9 9 9 9 9 9 9 9 9 9 9 9 9 9 9 9 9 9 9 9 9 9 9 9 9 9 9 9 9 9 9 9 9 9 9 9 9 9 9 9 9 9 9 9 9 9 9 9 9 9 9 9 9 9 9 9 9 9 9 9 9 9 9 9 9 9 9 9 9 9 9 9 9 9 9 9 9 9 9 9 9 9 9 9 9 9 9 9 9 9 9 9 9 9 9 9 9 9 9 9 9 9 9 9 9 9 9 9 9 9 9 9 9 9 9 9 9 9 9 9 9 9 9 9 9 9 9 9 9 9 9 9 9 9 9 9 9 9 9 9 9 9 9 9 9 9 9 9 9 9 9 9 9 9 9 9 9 9 9 9 



CELL_DATA 244
SCALARS MaterialID int 1
LOOKUP_TABLE default
0 0 0 0 0 0 0 0 0 0 0 0 0 0 0 0 0 0 0 0 0 0 0 0 0 0 0 0 0 0 0 0 0 0 0 0 0 0 0 0 0 0 0 0 0 0 0 0 0 0 0 0 0 0 0 0 0 0 0 0 0 0 0 0 0 0 0 0 0 0 0 0 0 0 0 0 0 0 0 0 0 0 0 0 0 0 0 0 0 0 0 0 0 0 0 0 0 0 0 0 0 0 0 0 0 0 0 0 0 0 0 0 0 0 0 0 0 0 0 0 0 0 0 0 0 0 0 0 0 0 0 0 0 0 0 0 0 0 0 0 0 0 0 0 0 0 0 0 0 0 0 0 0 0 0 0 0 0 0 0 0 0 0 0 0 0 0 0 0 0 0 0 0 0 0 0 0 0 0 0 0 0 0 0 0 0 0 0 0 0 0 0 0 0 0 0 0 0 0 0 0 0 0 0 0 0 0 0 0 0 0 0 0 0 0 0 0 0 0 0 0 0 0 0 0 0 0 0 0 0 0 0 0 0 0 0 0 0 0 0 0 0 0 0 



SCALARS ManifoldID int 1
LOOKUP_TABLE default
-1 -1 -1 -1 -1 -1 -1 -1 -1 -1 -1 -1 -1 -1 -1 -1 -1 -1 -1 -1 -1 -1 -1 -1 -1 -1 -1 -1 -1 -1 -1 -1 -1 -1 -1 -1 -1 -1 -1 -1 -1 -1 -1 -1 -1 -1 -1 -1 -1 -1 -1 -1 -1 -1 -1 -1 -1 -1 -1 -1 -1 -1 -1 -1 -1 -1 -1 -1 -1 -1 -1 -1 -1 -1 -1 -1 -1 -1 -1 -1 -1 -1 -1 -1 -1 -1 -1 -1 -1 -1 -1 -1 -1 -1 -1 -1 -1 -1 -1 -1 -1 -1 -1 -1 -1 -1 -1 -1 -1 -1 -1 -1 -1 -1 -1 -1 -1 -1 -1 -1 -1 -1 -1 -1 -1 -1 -1 -1 -1 -1 -1 -1 -1 -1 -1 -1 -1 -1 -1 -1 -1 -1 -1 -1 -1 -1 -1 -1 -1 -1 -1 -1 -1 -1 -1 -1 -1 -1 -1 -1 -1 -1 -1 -1 -1 -1 -1 -1 -1 -1 -1 -1 -1 -1 -1 -1 -1 -1 -1 -1 -1 -1 -1 -1 -1 -1 -1 -1 -1 -1 -1 -1 -1 -1 -1 -1 -1 -1 -1 -1 -1 -1 -1 -1 -1 -1 -1 -1 -1 -1 -1 -1 -1 -1 -1 -1 -1 -1 -1 -1 -1 -1 -1 -1 -1 -1 -1 -1 -1 -1 -1 -1 -1 -1 -1 -1 -1 -1 -1 -1 -1 -1 -1 -1 


