# vtk DataFile Version 3.0
Triangulation generated with deal.II
ASCII
DATASET UNSTRUCTURED_GRID
POINTS 1440 double
1 0 0
1 1.5 0
6.12323e-17 1.5 0
-1 1.5 0
-1 1.22465e-16 0
-1 -1 0
-1.83697e-16 -1 0
1 -1 0
0.25 0 0
0.176777 0.176777 0
1.53081e-17 0.25 0
-0.176777 0.176777 0
-0.25 3.06162e-17 0
-0.176777 -0.176777 0
-4.59243e-17 -0.25 0
0.176777 -0.176777 0
1 0 1
1 1.5 1
6.12323e-17 1.5 1
-1 1.5 1
-1 1.22465e-16 1
-1 -1 1
-1.83697e-16 -1 1
1 -1 1
0.25 0 1
0.176777 0.176777 1
1.53081e-17 0.25 1
-0.176777 0.176777 1
-0.25 3.06162e-17 1
-0.176777 -0.176777 1
-4.59243e-17 -0.25 1
0.176777 -0.176777 1
1 0 2
1 1.5 2
6.12323e-17 1.5 2
-1 1.5 2
-1 1.22465e-16 2
-1 -1 2
-1.83697e-16 -1 2
1 -1 2
0.25 0 2
0.176777 0.176777 2
1.53081e-17 0.25 2
-0.176777 0.176777 2
-0.25 3.06162e-17 2
-0.176777 -0.176777 2
-4.59243e-17 -0.25 2
0.176777 -0.176777 2
1 0.75 0
0.625 0 0
1 0 0.5
0.5 1.5 0
0.588388 0.838388 0
1 1.5 0.5
-0.5 1.5 0
3.82702e-17 0.875 0
6.12323e-17 1.5 0.5
-1 0.75 0
-0.588388 0.838388 0
-1 1.5 0.5
-1 -0.5 0
-0.625 7.65404e-17 0
-1 1.22465e-16 0.5
-0.5 -1 0
-0.588388 -0.588388 0
-1 -1 0.5
0.5 -1 0
-1.14811e-16 -0.625 0
-1.83697e-16 -1 0.5
1 -0.5 0
0.588388 -0.588388 0
1 -1 0.5
0.213388 0.0883883 0
0.25 0 0.5
0.0883883 0.213388 0
0.176777 0.176777 0.5
-0.0883883 0.213388 0
1.53081e-17 0.25 0.5
-0.213388 0.0883883 0
-0.176777 0.176777 0.5
-0.213388 -0.0883883 0
-0.25 3.06162e-17 0.5
-0.0883883 -0.213388 0
-0.176777 -0.176777 0.5
0.0883883 -0.213388 0
-4.59243e-17 -0.25 0.5
0.213388 -0.0883883 0
0.176777 -0.176777 0.5
1 0.75 1
0.625 0 1
1 0 1.5
0.5 1.5 1
0.588388 0.838388 1
1 1.5 1.5
-0.5 1.5 1
3.82702e-17 0.875 1
6.12323e-17 1.5 1.5
-1 0.75 1
-0.588388 0.838388 1
-1 1.5 1.5
-1 -0.5 1
-0.625 7.65404e-17 1
-1 1.22465e-16 1.5
-0.5 -1 1
-0.588388 -0.588388 1
-1 -1 1.5
0.5 -1 1
-1.14811e-16 -0.625 1
-1.83697e-16 -1 1.5
1 -0.5 1
0.588388 -0.588388 1
1 -1 1.5
0.213388 0.0883883 1
0.25 0 1.5
0.0883883 0.213388 1
0.176777 0.176777 1.5
-0.0883883 0.213388 1
1.53081e-17 0.25 1.5
-0.213388 0.0883883 1
-0.176777 0.176777 1.5
-0.213388 -0.0883883 1
-0.25 3.06162e-17 1.5
-0.0883883 -0.213388 1
-0.176777 -0.176777 1.5
0.0883883 -0.213388 1
-4.59243e-17 -0.25 1.5
0.213388 -0.0883883 1
0.176777 -0.176777 1.5
1 0.75 2
0.625 0 2
0.5 1.5 2
0.588388 0.838388 2
-0.5 1.5 2
3.82702e-17 0.875 2
-1 0.75 2
-0.588388 0.838388 2
-1 -0.5 2
-0.625 7.65404e-17 2
-0.5 -1 2
-0.588388 -0.588388 2
0.5 -1 2
-1.14811e-16 -0.625 2
1 -0.5 2
0.588388 -0.588388 2
0.213388 0.0883883 2
0.0883883 0.213388 2
-0.0883883 0.213388 2
-0.213388 0.0883883 2
-0.213388 -0.0883883 2
-0.0883883 -0.213388 2
0.0883883 -0.213388 2
0.213388 -0.0883883 2
1 0.75 0.5
0.606694 0.419194 0
0.625 0 0.5
0.5 1.5 0.5
0.294194 0.856694 0
0.588388 0.838388 0.5
-0.5 1.5 0.5
-0.294194 0.856694 0
3.82702e-17 0.875 0.5
-1 0.75 0.5
-0.606694 0.419194 0
-0.588388 0.838388 0.5
-1 -0.5 0.5
-0.606694 -0.294194 0
-0.625 7.65404e-17 0.5
-0.5 -1 0.5
-0.294194 -0.606694 0
-0.588388 -0.588388 0.5
0.5 -1 0.5
0.294194 -0.606694 0
-1.14811e-16 -0.625 0.5
1 -0.5 0.5
0.606694 -0.294194 0
0.588388 -0.588388 0.5
0.213388 0.0883883 0.5
0.0883883 0.213388 0.5
-0.0883883 0.213388 0.5
-0.213388 0.0883883 0.5
-0.213388 -0.0883883 0.5
-0.0883883 -0.213388 0.5
0.0883883 -0.213388 0.5
0.213388 -0.0883883 0.5
1 0.75 1.5
0.606694 0.419194 1
0.625 0 1.5
0.5 1.5 1.5
0.294194 0.856694 1
0.588388 0.838388 1.5
-0.5 1.5 1.5
-0.294194 0.856694 1
3.82702e-17 0.875 1.5
-1 0.75 1.5
-0.606694 0.419194 1
-0.588388 0.838388 1.5
-1 -0.5 1.5
-0.606694 -0.294194 1
-0.625 7.65404e-17 1.5
-0.5 -1 1.5
-0.294194 -0.606694 1
-0.588388 -0.588388 1.5
0.5 -1 1.5
0.294194 -0.606694 1
-1.14811e-16 -0.625 1.5
1 -0.5 1.5
0.606694 -0.294194 1
0.588388 -0.588388 1.5
0.213388 0.0883883 1.5
0.0883883 0.213388 1.5
-0.0883883 0.213388 1.5
-0.213388 0.0883883 1.5
-0.213388 -0.0883883 1.5
-0.0883883 -0.213388 1.5
0.0883883 -0.213388 1.5
0.213388 -0.0883883 1.5
0.606694 0.419194 2
0.294194 0.856694 2
-0.294194 0.856694 2
-0.606694 0.419194 2
-0.606694 -0.294194 2
-0.294194 -0.606694 2
0.294194 -0.606694 2
0.606694 -0.294194 2
0.606694 0.419194 0.5
0.606694 0.419194 1.5
0.294194 0.856694 0.5
0.294194 0.856694 1.5
-0.294194 0.856694 0.5
-0.294194 0.856694 1.5
-0.606694 0.419194 0.5
-0.606694 0.419194 1.5
-0.606694 -0.294194 0.5
-0.606694 -0.294194 1.5
-0.294194 -0.606694 0.5
-0.294194 -0.606694 1.5
0.294194 -0.606694 0.5
0.294194 -0.606694 1.5
0.606694 -0.294194 0.5
0.606694 -0.294194 1.5
1 0.375 0
1 1.125 0
0.8125 0 0
0.4375 0 0
1 0 0.25
1 0 0.75
0.75 1.5 0
0.25 1.5 0
0.794194 1.16919 0
0.382583 0.507583 0
1 1.5 0.25
1 1.5 0.75
-0.25 1.5 0
-0.75 1.5 0
4.97513e-17 1.1875 0
2.67891e-17 0.5625 0
6.12323e-17 1.5 0.25
6.12323e-17 1.5 0.75
-1 1.125 0
-1 0.375 0
-0.794194 1.16919 0
-0.382583 0.507583 0
-1 1.5 0.25
-1 1.5 0.75
-1 -0.25 0
-1 -0.75 0
-0.8125 9.95026e-17 0
-0.4375 5.35783e-17 0
-1 1.22465e-16 0.25
-1 1.22465e-16 0.75
-0.75 -1 0
-0.25 -1 0
-0.794194 -0.794194 0
-0.382583 -0.382583 0
-1 -1 0.25
-1 -1 0.75
0.25 -1 0
0.75 -1 0
-1.49254e-16 -0.8125 0
-8.03674e-17 -0.4375 0
-1.83697e-16 -1 0.25
-1.83697e-16 -1 0.75
1 -0.75 0
1 -0.25 0
0.794194 -0.794194 0
0.382583 -0.382583 0
1 -1 0.25
1 -1 0.75
0.231694 0.0441942 0
0.195083 0.132583 0
0.25 0 0.25
0.25 0 0.75
0.132583 0.195083 0
0.0441942 0.231694 0
0.176777 0.176777 0.25
0.176777 0.176777 0.75
-0.0441942 0.231694 0
-0.132583 0.195083 0
1.53081e-17 0.25 0.25
1.53081e-17 0.25 0.75
-0.195083 0.132583 0
-0.231694 0.0441942 0
-0.176777 0.176777 0.25
-0.176777 0.176777 0.75
-0.231694 -0.0441942 0
-0.195083 -0.132583 0
-0.25 3.06162e-17 0.25
-0.25 3.06162e-17 0.75
-0.132583 -0.195083 0
-0.0441942 -0.231694 0
-0.176777 -0.176777 0.25
-0.176777 -0.176777 0.75
0.0441942 -0.231694 0
0.132583 -0.195083 0
-4.59243e-17 -0.25 0.25
-4.59243e-17 -0.25 0.75
0.195083 -0.132583 0
0.231694 -0.0441942 0
0.176777 -0.176777 0.25
0.176777 -0.176777 0.75
1 0.375 1
1 1.125 1
0.8125 0 1
0.4375 0 1
1 0 1.25
1 0 1.75
0.75 1.5 1
0.25 1.5 1
0.794194 1.16919 1
0.382583 0.507583 1
1 1.5 1.25
1 1.5 1.75
-0.25 1.5 1
-0.75 1.5 1
4.97513e-17 1.1875 1
2.67891e-17 0.5625 1
6.12323e-17 1.5 1.25
6.12323e-17 1.5 1.75
-1 1.125 1
-1 0.375 1
-0.794194 1.16919 1
-0.382583 0.507583 1
-1 1.5 1.25
-1 1.5 1.75
-1 -0.25 1
-1 -0.75 1
-0.8125 9.95026e-17 1
-0.4375 5.35783e-17 1
-1 1.22465e-16 1.25
-1 1.22465e-16 1.75
-0.75 -1 1
-0.25 -1 1
-0.794194 -0.794194 1
-0.382583 -0.382583 1
-1 -1 1.25
-1 -1 1.75
0.25 -1 1
0.75 -1 1
-1.49254e-16 -0.8125 1
-8.03674e-17 -0.4375 1
-1.83697e-16 -1 1.25
-1.83697e-16 -1 1.75
1 -0.75 1
1 -0.25 1
0.794194 -0.794194 1
0.382583 -0.382583 1
1 -1 1.25
1 -1 1.75
0.231694 0.0441942 1
0.195083 0.132583 1
0.25 0 1.25
0.25 0 1.75
0.132583 0.195083 1
0.0441942 0.231694 1
0.176777 0.176777 1.25
0.176777 0.176777 1.75
-0.0441942 0.231694 1
-0.132583 0.195083 1
1.53081e-17 0.25 1.25
1.53081e-17 0.25 1.75
-0.195083 0.132583 1
-0.231694 0.0441942 1
-0.176777 0.176777 1.25
-0.176777 0.176777 1.75
-0.231694 -0.0441942 1
-0.195083 -0.132583 1
-0.25 3.06162e-17 1.25
-0.25 3.06162e-17 1.75
-0.132583 -0.195083 1
-0.0441942 -0.231694 1
-0.176777 -0.176777 1.25
-0.176777 -0.176777 1.75
0.0441942 -0.231694 1
0.132583 -0.195083 1
-4.59243e-17 -0.25 1.25
-4.59243e-17 -0.25 1.75
0.195083 -0.132583 1
0.231694 -0.0441942 1
0.176777 -0.176777 1.25
0.176777 -0.176777 1.75
1 0.375 2
1 1.125 2
0.8125 0 2
0.4375 0 2
0.75 1.5 2
0.25 1.5 2
0.794194 1.16919 2
0.382583 0.507583 2
-0.25 1.5 2
-0.75 1.5 2
4.97513e-17 1.1875 2
2.67891e-17 0.5625 2
-1 1.125 2
-1 0.375 2
-0.794194 1.16919 2
-0.382583 0.507583 2
-1 -0.25 2
-1 -0.75 2
-0.8125 9.95026e-17 2
-0.4375 5.35783e-17 2
-0.75 -1 2
-0.25 -1 2
-0.794194 -0.794194 2
-0.382583 -0.382583 2
0.25 -1 2
0.75 -1 2
-1.49254e-16 -0.8125 2
-8.03674e-17 -0.4375 2
1 -0.75 2
1 -0.25 2
0.794194 -0.794194 2
0.382583 -0.382583 2
0.231694 0.0441942 2
0.195083 0.132583 2
0.132583 0.195083 2
0.0441942 0.231694 2
-0.0441942 0.231694 2
-0.132583 0.195083 2
-0.195083 0.132583 2
-0.231694 0.0441942 2
-0.231694 -0.0441942 2
-0.195083 -0.132583 2
-0.132583 -0.195083 2
-0.0441942 -0.231694 2
0.0441942 -0.231694 2
0.132583 -0.195083 2
0.195083 -0.132583 2
0.231694 -0.0441942 2
1 0.375 0.5
1 1.125 0.5
1 0.75 0.25
1 0.75 0.75
0.803347 0.584597 0
0.410041 0.253791 0
0.615847 0.209597 0
0.597541 0.628791 0
0.625 0 0.25
0.625 0 0.75
0.8125 0 0.5
0.4375 0 0.5
0.75 1.5 0.5
0.25 1.5 0.5
0.5 1.5 0.25
0.5 1.5 0.75
0.397097 1.17835 0
0.191291 0.535041 0
0.441291 0.847541 0
0.147097 0.865847 0
0.588388 0.838388 0.25
0.588388 0.838388 0.75
0.794194 1.16919 0.5
0.382583 0.507583 0.5
-0.25 1.5 0.5
-0.75 1.5 0.5
-0.5 1.5 0.25
-0.5 1.5 0.75
-0.397097 1.17835 0
-0.191291 0.535041 0
-0.147097 0.865847 0
-0.441291 0.847541 0
3.82702e-17 0.875 0.25
3.82702e-17 0.875 0.75
4.97513e-17 1.1875 0.5
2.67891e-17 0.5625 0.5
-1 1.125 0.5
-1 0.375 0.5
-1 0.75 0.25
-1 0.75 0.75
-0.803347 0.584597 0
-0.410041 0.253791 0
-0.597541 0.628791 0
-0.615847 0.209597 0
-0.588388 0.838388 0.25
-0.588388 0.838388 0.75
-0.794194 1.16919 0.5
-0.382583 0.507583 0.5
-1 -0.25 0.5
-1 -0.75 0.5
-1 -0.5 0.25
-1 -0.5 0.75
-0.803347 -0.397097 0
-0.410041 -0.191291 0
-0.615847 -0.147097 0
-0.597541 -0.441291 0
-0.625 7.65404e-17 0.25
-0.625 7.65404e-17 0.75
-0.8125 9.95026e-17 0.5
-0.4375 5.35783e-17 0.5
-0.75 -1 0.5
-0.25 -1 0.5
-0.5 -1 0.25
-0.5 -1 0.75
-0.397097 -0.803347 0
-0.191291 -0.410041 0
-0.441291 -0.597541 0
-0.147097 -0.615847 0
-0.588388 -0.588388 0.25
-0.588388 -0.588388 0.75
-0.794194 -0.794194 0.5
-0.382583 -0.382583 0.5
0.25 -1 0.5
0.75 -1 0.5
0.5 -1 0.25
0.5 -1 0.75
0.397097 -0.803347 0
0.191291 -0.410041 0
0.147097 -0.615847 0
0.441291 -0.597541 0
-1.14811e-16 -0.625 0.25
-1.14811e-16 -0.625 0.75
-1.49254e-16 -0.8125 0.5
-8.03674e-17 -0.4375 0.5
1 -0.75 0.5
1 -0.25 0.5
1 -0.5 0.25
1 -0.5 0.75
0.803347 -0.397097 0
0.410041 -0.191291 0
0.597541 -0.441291 0
0.615847 -0.147097 0
0.588388 -0.588388 0.25
0.588388 -0.588388 0.75
0.794194 -0.794194 0.5
0.382583 -0.382583 0.5
0.231694 0.0441942 0.5
0.195083 0.132583 0.5
0.213388 0.0883883 0.25
0.213388 0.0883883 0.75
[...]
CELL_DATA 2304
SCALARS MaterialID int 1
LOOKUP_TABLE default
0 0 0 0 0 0 0 0 0 0 0 0 0 0 0 0 0 0 0 0 0 0 0 0 0 0 0 0 0 0 0 0 0 0 0 0 0 0 0 0 0 0 0 0 0 0 0 0 0 0 0 0 0 0 0 0 0 0 0 0 0 0 0 0 0 0 0 0 0 0 0 0 0 0 0 0 0 0 0 0 0 0 0 0 0 0 0 0 0 0 0 0 0 0 0 0 0 0 0 0 0 0 0 0 0 0 0 0 0 0 0 0 0 0 0 0 0 0 0 0 0 0 0 0 0 0 0 0 0 0 0 0 0 0 0 0 0 0 0 0 0 0 0 0 0 0 0 0 0 0 0 0 0 0 0 0 0 0 0 0 0 0 0 0 0 0 0 0 0 0 0 0 0 0 0 0 0 0 0 0 0 0 0 0 0 0 0 0 0 0 0 0 0 0 0 0 0 0 0 0 0 0 0 0 0 0 0 0 0 0 0 0 0 0 0 0 0 0 0 0 0 0 0 0 0 0 0 0 0 0 0 0 0 0 0 0 0 0 0 0 0 0 0 0 0 0 0 0 0 0 0 0 0 0 0 0 0 0 0 0 0 0 0 0 0 0 0 0 0 0 0 0 0 0 0 0 0 0 0 0 0 0 0 0 0 0 0 0 0 0 0 0 0 0 0 0 0 0 0 0 0 0 0 0 0 0 0 0 0 0 0 0 0 0 0 0 0 0 0 0 0 0 0 0 0 0 0 0 0 0 0 0 0 0 0 0 0 0 0 0 0 0 0 0 0 0 0 0 0 0 0 0 0 0 0 0 0 0 0 0 0 0 0 0 0 0 0 0 0 0 0 0 0 0 0 0 0 0 0 0 0 0 0 0 0 0 0 0 0 0 0 0 0 0 0 0 0 0 0 0 0 0 0 0 0 0 0 0 0 0 0 0 0 0 0 0 0 0 0 0 0 0 0 0 0 0 0 0 0 0 0 0 0 0 0 0 0 0 0 0 0 0 0 0 0 0 0 0 0 0 0 0 0 0 0 0 0 0 0 0 0 0 0 0 0 0 0 0 0 0 0 0 0 0 0 0 0 0 0 0 0 0 0 0 0 0 0 0 0 0 0 0 0 0 0 0 0 0 0 0 0 0 0 0 0 0 0 0 0 0 0 0 0 0 0 0 0 0 0 0 0 0 0 0 0 0 0 0 0 0 0 0 0 0 0 0 0 0 0 0 0 0 0 0 0 0 0 0 0 0 0 0 0 0 0 0 0 0 0 0 0 0 0 0 0 0 0 0 0 0 0 0 0 0 0 0 0 0 0 0 0 0 0 0 0 0 0 0 0 0 0 0 0 0 0 0 0 0 0 0 0 0 0 0 0 0 0 0 0 0 0 0 0 0 0 0 0 0 0 0 0 0 0 0 0 0 0 0 0 0 0 0 0 0 0 0 0 0 0 0 0 0 0 0 0 0 0 0 0 0 0 0 0 0 0 0 0 0 0 0 0 0 0 0 0 0 0 0 0 0 0 0 0 0 0 0 0 0 0 0 0 0 0 0 0 0 0 0 0 0 0 0 0 0 0 0 0 0 0 0 0 0 0 0 0 0 0 0 0 0 0 0 0 0 0 0 0 0 0 0 0 0 0 0 0 0 0 0 0 0 0 0 0 0 0 0 0 0 0 0 0 0 0 0 0 0 0 0 0 0 0 0 0 0 0 0 0 0 0 0 0 0 0 0 0 0 0 0 0 0 0 0 0 0 0 0 0 0 0 0 0 0 0 0 0 0 0 0 0 0 0 0 0 0 0 0 0 0 0 0 0 0 0 0 0 0 0 0 0 0 0 0 0 0 0 0 0 0 0 0 0 0 0 0 0 0 0 0 0 0 0 0 0 0 0 0 0 0 0 0 0 0 0 0 0 0 0 0 0 0 0 0 0 0 0 0 0 0 0 0 0 0 0 0 0 0 0 0 0 0 0 0 0 0 0 0 0 0 0 0 0 0 0 0 0 0 0 0 0 0 0 0 0 0 0 0 0 0 0 0 0 0 0 0 0 0 0 0 0 0 0 0 0 0 0 0 0 0 0 0 0 0 0 0 0 0 0 0 0 0 0 0 0 0 0 0 0 0 0 0 0 0 0 0 0 0 0 0 0 0 0 0 0 0 0 0 0 0 0 0 0 0 0 0 0 0 0 0 0 0 0 0 0 0 0 0 0 0 0 0 0 0 0 0 0 0 0 0 0 0 0 0 0 0 0 0 0 0 0 0 0 0 0 0 0 0 0 0 0 0 0 0 0 0 0 0 0 0 0 0 0 0 0 0 
2 2 2 2 2 2 2 2 2 2 2 2 2 2 2 2 2 2 2 2 2 2 2 2 2 2 2 2 2 2 2 2 2 2 2 2 2 2 2 2 2 2 2 2 2 2 2 2 2 2 2 2 2 2 2 2 2 2 2 2 2 2 2 2 2 2 2 2 2 2 2 2 2 2 2 2 2 2 2 2 2 2 2 2 2 2 2 2 2 2 2 2 2 2 2 2 2 2 2 2 2 2 2 2 2 2 2 2 2 2 2 2 2 2 2 2 2 2 2 2 2 2 2 2 2 2 2 2 1 1 1 1 1 1 1 1 1 1 1 1 1 1 1 1 1 1 1 1 1 1 1 1 1 1 1 1 1 1 1 1 1 1 1 1 1 1 1 1 1 1 1 1 1 1 1 1 1 1 1 1 1 1 1 1 1 1 1 1 1 1 1 1 1 1 1 1 1 1 1 1 1 1 1 1 1 1 1 1 1 1 1 1 1 1 1 1 1 1 1 1 1 1 1 1 1 1 1 1 1 1 1 1 1 1 1 1 1 1 1 1 1 1 1 1 1 1 1 1 1 1 1 1 1 1 1 1 1 1 1 1 1 1 1 1 1 1 1 1 1 1 1 1 1 1 1 1 1 1 1 1 1 1 1 1 1 1 1 1 1 1 1 1 1 1 1 1 1 1 1 1 1 1 1 1 1 1 1 1 1 1 1 1 1 1 1 1 1 1 1 1 1 1 1 1 1 1 1 1 1 1 1 1 1 1 1 1 1 1 1 1 1 1 1 1 1 1 1 1 1 1 1 1 1 1 1 1 1 1 1 1 1 1 1 1 1 1 1 1 1 1 1 1 1 1 1 1 1 1 1 1 1 1 1 1 3 3 3 3 3 3 3 3 3 3 3 3 3 3 3 3 3 3 3 3 3 3 3 3 3 3 3 3 3 3 3 3 3 3 3 3 3 3 3 3 3 3 3 3 3 3 3 3 3 3 3 3 3 3 3 3 3 3 3 3 3 3 3 3 3 3 3 3 3 3 3 3 3 3 3 3 3 3 3 3 3 3 3 3 3 3 3 3 3 3 3 3 3 3 3 3 3 3 3 3 3 3 3 3 3 3 3 3 3 3 3 3 3 3 3 3 3 3 3 3 3 3 3 3 3 3 3 3 
2 2 2 2 2 2 2 2 2 2 2 2 2 2 2 2 2 2 2 2 2 2 2 2 2 2 2 2 2 2 2 2 2 2 2 2 2 2 2 2 2 2 2 2 2 2 2 2 2 2 2 2 2 2 2 2 2 2 2 2 2 2 2 2 2 2 2 2 2 2 2 2 2 2 2 2 2 2 2 2 2 2 2 2 2 2 2 2 2 2 2 2 2 2 2 2 2 2 2 2 2 2 2 2 2 2 2 2 2 2 2 2 2 2 2 2 2 2 2 2 2 2 2 2 2 2 2 2 2 2 2 2 2 2 2 2 2 2 2 2 2 2 2 2 2 2 2 2 2 2 2 2 2 2 2 2 2 2 2 2 2 2 2 2 2 2 2 2 2 2 2 2 2 2 2 2 2 2 2 2 2 2 2 2 2 2 2 2 2 2 2 2 1 1 1 1 1 1 1 1 1 1 1 1 1 1 1 1 1 1 1 1 1 1 1 1 1 1 1 1 1 1 1 1 1 1 1 1 1 1 1 1 1 1 1 1 1 1 1 1 1 1 1 1 1 1 1 1 1 1 1 1 1 1 1 1 1 1 1 1 1 1 1 1 1 1 1 1 1 1 1 1 1 1 1 1 1 1 1 1 1 1 1 1 1 1 1 1 1 1 1 1 1 1 1 1 1 1 1 1 1 1 1 1 1 1 1 1 1 1 1 1 1 1 1 1 1 1 1 1 1 1 1 1 1 1 1 1 1 1 1 1 1 1 1 1 1 1 1 1 1 1 1 1 1 1 1 1 1 1 1 1 1 1 1 1 1 1 1 1 1 1 1 1 1 1 1 1 1 1 1 1 1 1 1 1 1 1 1 1 1 1 1 1 1 1 1 1 1 1 1 1 1 1 1 1 1 1 1 1 1 1 1 1 1 1 1 1 1 1 1 1 1 1 1 1 1 1 1 1 1 1 1 1 1 1 1 1 1 1 1 1 1 1 1 1 1 1 1 1 1 1 1 1 1 1 1 1 1 1 1 1 1 1 1 1 1 1 1 1 1 1 1 1 1 1 1 1 1 1 1 1 1 1 1 1 1 1 1 1 1 1 1 1 1 1 1 1 1 1 1 1 1 1 1 1 1 1 1 1 1 1 1 1 1 1 1 1 1 1 1 1 1 1 1 1 1 1 1 1 1 1 1 1 1 1 1 1 1 1 1 1 1 1 1 1 1 1 1 1 1 1 1 1 1 1 1 1 1 1 1 1 1 1 1 1 1 1 1 1 1 1 1 1 1 1 1 1 1 1 1 1 1 1 1 1 3 3 3 3 3 3 3 3 3 3 3 3 3 3 3 3 3 3 3 3 3 3 3 3 3 3 3 3 3 3 3 3 3 3 3 3 3 3 3 3 3 3 3 3 3 3 3 3 3 3 3 3 3 3 3 3 3 3 3 3 3 3 3 3 3 3 3 3 3 3 3 3 3 3 3 3 3 3 3 3 3 3 3 3 3 3 3 3 3 3 3 3 3 3 3 3 3 3 3 3 3 3 3 3 3 3 3 3 3 3 3 3 3 3 3 3 3 3 3 3 3 3 3 3 3 3 3 3 3 3 3 3 3 3 3 3 3 3 3 3 3 3 3 3 3 3 3 3 3 3 3 3 3 3 3 3 3 3 3 3 3 3 3 3 3 3 3 3 3 3 3 3 3 3 3 3 3 3 3 3 3 3 3 3 3 3 3 3 3 3 3 3 

SCALARS ManifoldID int 1
LOOKUP_TABLE default
-1 -1 -1 -1 -1 -1 -1 -1 -1 -1 -1 -1 -1 -1 -1 -1 -1 -1 -1 -1 -1 -1 -1 -1 -1 -1 -1 -1 -1 -1 -1 -1 -1 -1 -1 -1 -1 -1 -1 -1 -1 -1 -1 -1 -1 -1 -1 -1 -1 -1 -1 -1 -1 -1 -1 -1 -1 -1 -1 -1 -1 -1 -1 -1 -1 -1 -1 -1 -1 -1 -1 -1 -1 -1 -1 -1 -1 -1 -1 -1 -1 -1 -1 -1 -1 -1 -1 -1 -1 -1 -1 -1 -1 -1 -1 -1 -1 -1 -1 -1 -1 -1 -1 -1 -1 -1 -1 -1 -1 -1 -1 -1 -1 -1 -1 -1 -1 -1 -1 -1 -1 -1 -1 -1 -1 -1 -1 -1 -1 -1 -1 -1 -1 -1 -1 -1 -1 -1 -1 -1 -1 -1 -1 -1 -1 -1 -1 -1 -1 -1 -1 -1 -1 -1 -1 -1 -1 -1 -1 -1 -1 -1 -1 -1 -1 -1 -1 -1 -1 -1 -1 -1 -1 -1 -1 -1 -1 -1 -1 -1 -1 -1 -1 -1 -1 -1 -1 -1 -1 -1 -1 -1 -1 -1 -1 -1 -1 -1 -1 -1 -1 -1 -1 -1 -1 -1 -1 -1 -1 -1 -1 -1 -1 -1 -1 -1 -1 -1 -1 -1 -1 -1 -1 -1 -1 -1 -1 -1 -1 -1 -1 -1 -1 -1 -1 -1 -1 -1 -1 -1 -1 -1 -1 -1 -1 -1 -1 -1 -1 -1 -1 -1 -1 -1 -1 -1 -1 -1 -1 -1 -1 -1 -1 -1 -1 -1 -1 -1 -1 -1 -1 -1 -1 -1 -1 -1 -1 -1 -1 -1 -1 -1 -1 -1 -1 -1 -1 -1 -1 -1 -1 -1 -1 -1 -1 -1 -1 -1 -1 -1 -1 -1 -1 -1 -1 -1 -1 -1 -1 -1 -1 -1 -1 -1 -1 -1 -1 -1 -1 -1 -1 -1 -1 -1 -1 -1 -1 -1 -1 -1 -1 -1 -1 -1 -1 -1 -1 -1 -1 -1 -1 -1 -1 -1 -1 -1 -1 -1 -1 -1 -1 -1 -1 -1 -1 -1 -1 -1 -1 -1 -1 -1 -1 -1 -1 -1 -1 -1 -1 -1 -1 -1 -1 -1 -1 -1 -1 -1 -1 -1 -1 -1 -1 -1 -1 -1 -1 -1 -1 -1 -1 -1 -1 -1 -1 -1 -1 -1 -1 -1 -1 -1 -1 -1 -1 -1 -1 -1 -1 -1 -1 -1 -1 -1 -1 -1 -1 -1 -1 -1 -1 -1 -1 -1 -1 -1 -1 -1 -1 -1 -1 -1 -1 -1 -1 -1 -1 -1 -1 -1 -1 -1 -1 -1 -1 -1 -1 -1 -1 -1 -1 -1 -1 -1 -1 -1 -1 -1 -1 -1 -1 -1 -1 -1 -1 -1 -1 -1 -1 -1 -1 -1 -1 -1 -1 -1 -1 -1 -1 -1 -1 -1 -1 -1 -1 -1 -1 -1 -1 -1 -1 -1 -1 -1 -1 -1 -1 -1 -1 -1 -1 -1 -1 -1 -1 -1 -1 -1 -1 -1 -1 -1 -1 -1 -1 -1 -1 -1 -1 -1 -1 -1 -1 -1 -1 -1 -1 -1 -1 -1 -1 -1 -1 -1 -1 -1 -1 -1 -1 -1 -1 -1 -1 -1 -1 -1 -1 -1 -1 -1 -1 -1 -1 -1 -1 -1 -1 -1 -1 -1 -1 -1 -1 -1 -1 -1 -1 -1 -1 -1 -1 -1 -1 -1 -1 -1 -1 -1 -1 -1 -1 -1 -1 -1 -1 -1 -1 -1 -1 -1 -1 -1 -1 -1 -1 -1 -1 -1 -1 -1 -1 -1 -1 -1 -1 -1 -1 -1 -1 -1 -1 -1 -1 -1 -1 -1 -1 -1 -1 -1 -1 -1 -1 -1 -1 -1 -1 -1 -1 -1 -1 -1 -1 -1 -1 -1 -1 -1 -1 -1 -1 -1 -1 -1 -1 -1 -1 -1 -1 -1 -1 -1 -1 -1 -1 -1 -1 -1 -1 -1 -1 -1 -1 -1 -1 -1 -1 -1 -1 -1 -1 -1 -1 -1 -1 -1 -1 -1 -1 -1 -1 -1 -1 -1 -1 -1 -1 -1 -1 -1 -1 -1 -1 -1 -1 -1 -1 -1 -1 -1 -1 -1 -1 -1 -1 -1 -1 -1 -1 -1 -1 -1 -1 -1 -1 -1 -1 -1 -1 -1 -1 -1 -1 -1 -1 -1 -1 -1 -1 -1 -1 -1 -1 -1 -1 -1 -1 -1 -1 -1 -1 -1 -1 -1 -1 -1 -1 -1 -1 -1 -1 -1 -1 -1 -1 -1 -1 -1 -1 -1 -1 -1 -1 -1 -1 -1 -1 -1 -1 -1 -1 -1 -1 -1 -1 -1 -1 -1 -1 -1 -1 -1 -1 -1 -1 -1 -1 -1 -1 -1 -1 -1 -1 -1 -1 -1 -1 -1 -1 -1 -1 -1 -1 -1 -1 -1 -1 -1 -1 -1 -1 -1 -1 -1 -1 -1 -1 -1 -1 -1 -1 -1 -1 -1 -1 -1 -1 -1 -1 -1 -1 -1 -1 -1 -1 -1 -1 -1 -1 -1 -1 -1 -1 -1 -1 -1 -1 -1 -1 -1 -1 -1 -1 -1 -1 -1 -1 -1 -1 -1 -1 -1 -1 -1 -1 -1 -1 -1 -1 -1 -1 -1 -1 -1 -1 -1 -1 -1 -1 -1 -1 -1 -1 -1 -1 -1 -1 -1 -1 -1 -1 -1 -1 -1 -1 -1 -1 -1 -1 -1 -1 -1 -1 -1 -1 -1 -1 -1 -1 -1 -1 -1 -1 -1 -1 -1 -1 -1 -1 -1 -1 -1 -1 -1 -1 -1 -1 -1 -1 -1 -1 -1 -1 -1 -1 -1 -1 -1 -1 -1 -1 -1 -1 -1 -1 -1 -1 -1 -1 -1 -1 -1 -1 -1 -1 -1 -1 -1 -1 -1 -1 -1 -1 -1 -1 -1 -1 -1 -1 -1 -1 -1 -1 -1 -1 -1 -1 -1 -1 -1 -1 -1 -1 -1 -1 -1 -1 -1 -1 -1 -1 -1 -1 -1 -1 -1 -1 -1 -1 -1 -1 -1 -1 -1 -1 -1 -1 -1 -1 -1 -1 -1 -1 -1 -1 -1 -1 -1 -1 -1 -1 -1 -1 -1 
-1 -1 -1 -1 -1 -1 -1 -1 -1 -1 -1 -1 -1 -1 -1 -1 -1 -1 -1 -1 -1 -1 -1 -1 -1 -1 -1 -1 -1 -1 -1 -1 -1 -1 -1 -1 -1 -1 -1 -1 -1 -1 -1 -1 -1 -1 -1 -1 -1 -1 -1 -1 -1 -1 -1 -1 -1 -1 -1 -1 -1 -1 -1 -1 -1 -1 -1 -1 -1 -1 -1 -1 -1 -1 -1 -1 -1 -1 -1 -1 -1 -1 -1 -1 -1 -1 -1 -1 -1 -1 -1 -1 -1 -1 -1 -1 -1 -1 -1 -1 -1 -1 -1 -1 -1 -1 -1 -1 -1 -1 -1 -1 -1 -1 -1 -1 -1 -1 -1 -1 -1 -1 -1 -1 -1 -1 -1 -1 -1 -1 -1 -1 -1 -1 -1 -1 -1 -1 -1 -1 -1 -1 -1 -1 -1 -1 -1 -1 -1 -1 -1 -1 -1 -1 -1 -1 -1 -1 -1 -1 -1 -1 -1 -1 -1 -1 -1 -1 -1 -1 -1 -1 -1 -1 -1 -1 -1 -1 -1 -1 -1 -1 -1 -1 -1 -1 -1 -1 -1 -1 -1 -1 -1 -1 -1 -1 -1 -1 -1 -1 -1 -1 -1 -1 -1 -1 -1 -1 -1 -1 -1 -1 -1 -1 -1 -1 -1 -1 -1 -1 -1 -1 -1 -1 -1 -1 -1 -1 -1 -1 -1 -1 -1 -1 -1 -1 -1 -1 -1 -1 -1 -1 -1 -1 -1 -1 -1 -1 -1 -1 -1 -1 -1 -1 -1 -1 -1 -1 -1 -1 -1 -1 -1 -1 -1 -1 -1 -1 -1 -1 -1 -1 -1 -1 -1 -1 -1 -1 -1 -1 -1 -1 -1 -1 -1 -1 -1 -1 -1 -1 -1 -1 -1 -1 -1 -1 -1 -1 -1 -1 -1 -1 -1 -1 -1 -1 -1 -1 -1 -1 -1 -1 -1 -1 -1 -1 -1 -1 -1 -1 -1 -1 -1 -1 -1 -1 -1 -1 -1 -1 -1 -1 -1 -1 -1 -1 -1 -1 -1 -1 -1 -1 -1 -1 -1 -1 -1 -1 -1 -1 -1 -1 -1 -1 -1 -1 -1 -1 -1 -1 -1 -1 -1 -1 -1 -1 -1 -1 -1 -1 -1 -1 -1 -1 -1 -1 -1 -1 -1 -1 -1 -1 -1 -1 -1 -1 -1 -1 -1 -1 -1 -1 -1 -1 -1 -1 -1 -1 -1 -1 -1 -1 -1 -1 -1 -1 -1 -1 -1 -1 -1 -1 -1 -1 -1 -1 -1 -1 -1 -1 -1 -1 -1 -1 -1 -1 -1 -1 -1 -1 -1 -1 -1 -1 -1 -1 -1 -1 -1 -1 -1 -1 -1 -1 -1 -1 -1 -1 -1 -1 -1 -1 -1 -1 -1 -1 -1 -1 -1 -1 -1 -1 -1 -1 -1 -1 -1 -1 -1 -1 -1 -1 -1 -1 -1 -1 -1 -1 -1 -1 -1 -1 -1 -1 -1 -1 -1 -1 -1 -1 -1 -1 -1 -1 -1 -1 -1 -1 -1 -1 -1 -1 -1 -1 -1 -1 -1 -1 -1 -1 -1 -1 
-1 -1 -1 -1 -1 -1 -1 -1 -1 -1 -1 -1 -1 -1 -1 -1 -1 -1 -1 -1 -1 -1 -1 -1 -1 -1 -1 -1 -1 -1 -1 -1 -1 -1 -1 -1 -1 -1 -1 -1 -1 -1 -1 -1 -1 -1 -1 -1 -1 -1 -1 -1 -1 -1 -1 -1 -1 -1 -1 -1 -1 -1 -1 -1 -1 -1 -1 -1 -1 -1 -1 -1 -1 -1 -1 -1 -1 -1 -1 -1 -1 -1 -1 -1 -1 -1 -1 -1 -1 -1 -1 -1 -1 -1 -1 -1 -1 -1 -1 -1 -1 -1 -1 -1 -1 -1 -1 -1 -1 -1 -1 -1 -1 -1 -1 -1 -1 -1 -1 -1 -1 -1 -1 -1 -1 -1 -1 -1 -1 -1 -1 -1 -1 -1 -1 -1 -1 -1 -1 -1 -1 -1 -1 -1 -1 -1 -1 -1 -1 -1 -1 -1 -1 -1 -1 -1 -1 -1 -1 -1 -1 -1 -1 -1 -1 -1 -1 -1 -1 -1 -1 -1 -1 -1 -1 -1 -1 -1 -1 -1 -1 -1 -1 -1 -1 -1 -1 -1 -1 -1 -1 -1 -1 -1 -1 -1 -1 -1 -1 -1 -1 -1 -1 -1 -1 -1 -1 -1 -1 -1 -1 -1 -1 -1 -1 -1 -1 -1 -1 -1 -1 -1 -1 -1 -1 -1 -1 -1 -1 -1 -1 -1 -1 -1 -1 -1 -1 -1 -1 -1 -1 -1 -1 -1 -1 -1 -1 -1 -1 -1 -1 -1 -1 -1 -1 -1 -1 -1 -1 -1 -1 -1 -1 -1 -1 -1 -1 -1 -1 -1 -1 -1 -1 -1 -1 -1 -1 -1 -1 -1 -1 -1 -1 -1 -1 -1 -1 -1 -1 -1 -1 -1 -1 -1 -1 -1 -1 -1 -1 -1 -1 -1 -1 -1 -1 -1 -1 -1 -1 -1 -1 -1 -1 -1 -1 -1 -1 -1 -1 -1 -1 -1 -1 -1 -1 -1 -1 -1 -1 -1 -1 -1 -1 -1 -1 -1 -1 -1 -1 -1 -1 -1 -1 -1 -1 -1 -1 -1 -1 -1 -1 -1 -1 -1 -1 -1 -1 -1 -1 -1 -1 -1 -1 -1 -1 -1 -1 -1 -1 -1 -1 -1 -1 -1 -1 -1 -1 -1 -1 -1 -1 -1 -1 -1 -1 -1 -1 -1 -1 -1 -1 -1 -1 -1 -1 -1 -1 -1 -1 -1 -1 -1 -1 -1 -1 -1 -1 -1 -1 -1 -1 -1 -1 -1 -1 -1 -1 -1 -1 -1 -1 -1 -1 -1 -1 -1 -1 -1 -1 -1 -1 -1 -1 -1 -1 -1 -1 -1 -1 -1 -1 -1 -1 -1 -1 -1 -1 -1 -1 -1 -1 -1 -1 -1 -1 -1 -1 -1 -1 -1 -1 -1 -1 -1 -1 -1 -1 -1 -1 -1 -1 -1 -1 -1 -1 -1 -1 -1 -1 -1 -1 -1 -1 -1 -1 -1 -1 -1 -1 -1 -1 -1 -1 -1 -1 -1 -1 -1 -1 -1 -1 -1 -1 -1 -1 -1 -1 -1 -1 -1 -1 -1 -1 -1 -1 -1 -1 -1 -1 -1 -1 -1 -1 -1 -1 -1 -1 -1 -1 -1 -1 -1 -1 -1 -1 -1 -1 -1 -1 -1 -1 -1 -1 -1 -1 -1 -1 -1 -1 -1 -1 -1 -1 -1 -1 -1 -1 -1 -1 -1 -1 -1 -1 -1 -1 -1 -1 -1 -1 -1 -1 -1 -1 -1 -1 -1 -1 -1 -1 -1 -1 -1 -1 -1 -1 -1 -1 -1 -1 -1 -1 -1 -1 -1 -1 -1 -1 -1 -1 -1 -1 -1 -1 -1 -1 -1 -1 -1 -1 -1 -1 -1 -1 -1 -1 -1 -1 -1 -1 -1 -1 -1 -1 -1 -1 -1 -1 -1 -1 -1 -1 -1 -1 -1 -1 -1 -1 -1 -1 -1 -1 -1 -1 -1 -1 -1 -1 -1 -1 -1 -1 -1 -1 -1 -1 -1 -1 -1 -1 -1 -1 -1 -1 -1 -1 -1 -1 -1 -1 -1 -1 -1 -1 -1 -1 -1 -1 -1 -1 -1 -1 -1 -1 -1 -1 -1 -1 -1 -1 -1 -1 -1 -1 -1 -1 -1 -1 -1 -1 -1 -1 -1 -1 -1 -1 -1 -1 -1 -1 -1 -1 -1 -1 -1 -1 -1 -1 -1 -1 -1 -1 -1 -1 -1 -1 -1 -1 -1 -1 -1 -1 -1 -1 -1 -1 -1 -1 -1 -1 -1 -1 -1 -1 -1 -1 -1 -1 -1 -1 -1 -1 -1 -1 -1 -1 -1 -1 -1 -1 -1 -1 -1 -1 -1 -1 -1 -1 -1 
