# vtk DataFile Version 3.0
Triangulation generated with deal.II
ASCII
DATASET UNSTRUCTURED_GRID
POINTS 160 double
1 0 0
1 1.5 0
6.12323e-17 1.5 0
-1 1.5 0
-1 1.22465e-16 0
-1 -1 0
-1.83697e-16 -1 0
1 -1 0
0.25 0 0
0.176777 0.176777 0
1.53081e-17 0.25 0
-0.176777 0.176777 0
-0.25 3.06162e-17 0
-0.176777 -0.176777 0
-4.59243e-17 -0.25 0
0.176777 -0.176777 0
1 0.75 0
0.625 0 0
0.5 1.5 0
0.588388 0.838388 0
-0.5 1.5 0
3.82702e-17 0.875 0
-1 0.75 0
-0.588388 0.838388 0
-1 -0.5 0
-0.625 7.65404e-17 0
-0.5 -1 0
-0.588388 -0.588388 0
0.5 -1 0
-1.14811e-16 -0.625 0
1 -0.5 0
0.588388 -0.588388 0
0.23097 0.0956709 0
0.0956709 0.23097 0
-0.0956709 0.23097 0
-0.23097 0.0956709 0
-0.23097 -0.0956709 0
-0.0956709 -0.23097 0
0.0956709 -0.23097 0
0.23097 -0.0956709 0
0.615485 0.422835 0
0.297835 0.865485 0
-0.297835 0.865485 0
-0.615485 0.422835 0
-0.615485 -0.297835 0
-0.297835 -0.615485 0
0.297835 -0.615485 0
0.615485 -0.297835 0
1 0.375 0
1 1.125 0
0.8125 0 0
0.4375 0 0
0.75 1.5 0
0.25 1.5 0
0.794194 1.16919 0
0.382583 0.507583 0
-0.25 1.5 0
-0.75 1.5 0
4.97513e-17 1.1875 0
2.67891e-17 0.5625 0
-1 1.125 0
-1 0.375 0
-0.794194 1.16919 0
-0.382583 0.507583 0
-1 -0.25 0
-1 -0.75 0
-0.8125 9.95026e-17 0
-0.4375 5.35783e-17 0
-0.75 -1 0
-0.25 -1 0
-0.794194 -0.794194 0
-0.382583 -0.382583 0
0.25 -1 0
0.75 -1 0
-1.49254e-16 -0.8125 0
-8.03674e-17 -0.4375 0
1 -0.75 0
1 -0.25 0
0.794194 -0.794194 0
0.382583 -0.382583 0
0.245196 0.0487726 0
0.207867 0.138893 0
0.138893 0.207867 0
0.0487726 0.245196 0
-0.0487726 0.245196 0
-0.138893 0.207867 0
-0.207867 0.138893 0
-0.245196 0.0487726 0
-0.245196 -0.0487726 0
-0.207867 -0.138893 0
-0.138893 -0.207867 0
-0.0487726 -0.245196 0
0.0487726 -0.245196 0
0.138893 -0.207867 0
0.207867 -0.138893 0
0.245196 -0.0487726 0
0.807742 0.586418 0
0.423227 0.259253 0
0.620242 0.211418 0
0.601937 0.630612 0
0.398918 1.18274 0
0.196753 0.548227 0
0.443112 0.851937 0
0.148918 0.870242 0
-0.398918 1.18274 0
-0.196753 0.548227 0
-0.148918 0.870242 0
-0.443112 0.851937 0
-0.807742 0.586418 0
-0.423227 0.259253 0
-0.601937 0.630612 0
-0.620242 0.211418 0
-0.807742 -0.398918 0
-0.423227 -0.196753 0
-0.620242 -0.148918 0
-0.601937 -0.443112 0
-0.398918 -0.807742 0
-0.196753 -0.423227 0
-0.443112 -0.601937 0
-0.148918 -0.620242 0
0.398918 -0.807742 0
0.196753 -0.423227 0
0.148918 -0.620242 0
0.443112 -0.601937 0
0.807742 -0.398918 0
0.423227 -0.196753 0
0.601937 -0.443112 0
0.620242 -0.148918 0
0.810121 0.293209 0
0.800968 0.877806 0
0.432719 0.130095 0
0.404902 0.384752 0
0.596556 1.17597 0
0.199459 1.18512 0
0.291002 0.529902 0
0.0988451 0.557719 0
-0.199459 1.18512 0
-0.596556 1.17597 0
-0.0988451 0.557719 0
-0.291002 0.529902 0
-0.800968 0.877806 0
-0.810121 0.293209 0
-0.404902 0.384752 0
-0.432719 0.130095 0
-0.810121 -0.199459 0
-0.800968 -0.596556 0
-0.432719 -0.0988451 0
-0.404902 -0.291002 0
-0.596556 -0.800968 0
-0.199459 -0.810121 0
-0.291002 -0.404902 0
-0.0988451 -0.432719 0
0.199459 -0.810121 0
0.596556 -0.800968 0
0.0988451 -0.432719 0
0.291002 -0.404902 0
0.800968 -0.596556 0
0.810121 -0.199459 0
0.404902 -0.291002 0
0.432719 -0.0988451 0

CELLS 160 736
4 0 48 128 50
4 48 16 96 128
4 50 128 98 17
4 128 96 40 98
4 16 49 129 96
4 49 1 54 129
4 96 129 99 40
4 129 54 19 99
4 17 98 130 51
4 98 40 97 130
4 51 130 80 8
4 130 97 32 80
4 40 99 131 97
4 99 19 55 131
4 97 131 81 32
4 131 55 9 81
4 1 52 132 54
4 52 18 100 132
4 54 132 102 19
4 132 100 41 102
4 18 53 133 100
4 53 2 58 133
4 100 133 103 41
4 133 58 21 103
4 19 102 134 55
4 102 41 101 134
4 55 134 82 9
4 134 101 33 82
4 41 103 135 101
4 103 21 59 135
4 101 135 83 33
4 135 59 10 83
4 2 56 136 58
4 56 20 104 136
4 58 136 106 21
4 136 104 42 106
4 20 57 137 104
4 57 3 62 137
4 104 137 107 42
4 137 62 23 107
4 21 106 138 59
4 106 42 105 138
4 59 138 84 10
4 138 105 34 84
4 42 107 139 105
4 107 23 63 139
4 105 139 85 34
4 139 63 11 85
4 3 60 140 62
4 60 22 108 140
4 62 140 110 23
4 140 108 43 110
4 22 61 141 108
4 61 4 66 141
4 108 141 111 43
4 141 66 25 111
4 23 110 142 63
4 110 43 109 142
4 63 142 86 11
4 142 109 35 86
4 43 111 143 109
4 111 25 67 143
4 109 143 87 35
4 143 67 12 87
4 4 64 144 66
4 64 24 112 144
4 66 144 114 25
4 144 112 44 114
4 24 65 145 112
4 65 5 70 145
4 112 145 115 44
4 145 70 27 115
4 25 114 146 67
4 114 44 113 146
4 67 146 88 12
4 146 113 36 88
4 44 115 147 113
4 115 27 71 147
4 113 147 89 36
4 147 71 13 89
4 5 68 148 70
4 68 26 116 148
4 70 148 118 27
4 148 116 45 118
4 26 69 149 116
4 69 6 74 149
4 116 149 119 45
4 149 74 29 119
4 27 118 150 71
4 118 45 117 150
4 71 150 90 13
4 150 117 37 90
4 45 119 151 117
4 119 29 75 151
4 117 151 91 37
4 151 75 14 91
4 6 72 152 74
4 72 28 120 152
4 74 152 122 29
4 152 120 46 122
4 28 73 153 120
4 73 7 78 153
4 120 153 123 46
4 153 78 31 123
4 29 122 154 75
4 122 46 121 154
4 75 154 92 14
4 154 121 38 92
4 46 123 155 121
4 123 31 79 155
4 121 155 93 38
4 155 79 15 93
4 7 76 156 78
4 76 30 124 156
4 78 156 126 31
4 156 124 47 126
4 30 77 157 124
4 77 0 50 157
4 124 157 127 47
4 157 50 17 127
4 31 126 158 79
4 126 47 125 158
4 79 158 94 15
4 158 125 39 94
4 47 127 159 125
4 127 17 51 159
4 125 159 95 39
4 159 51 8 95
2 8 80
2 80 32
2 32 81
2 81 9
2 9 82
2 82 33
2 33 83
2 83 10
2 10 84
2 84 34
2 34 85
2 85 11
2 11 86
2 86 35
2 35 87
2 87 12
2 12 88
2 88 36
2 36 89
2 89 13
2 13 90
2 90 37
2 37 91
2 91 14
2 14 92
2 92 38
2 38 93
2 93 15
2 15 94
2 94 39
2 39 95
2 95 8

CELL_TYPES 160
9 9 9 9 9 9 9 9 9 9 9 9 9 9 9 9 9 9 9 9 9 9 9 9 9 9 9 9 9 9 9 9 9 9 9 9 9 9 9 9 9 9 9 9 9 9 9 9 9 9 9 9 9 9 9 9 9 9 9 9 9 9 9 9 9 9 9 9 9 9 9 9 9 9 9 9 9 9 9 9 9 9 9 9 9 9 9 9 9 9 9 9 9 9 9 9 9 9 9 9 9 9 9 9 9 9 9 9 9 9 9 9 9 9 9 9 9 9 9 9 9 9 9 9 9 9 9 9 
3 3 3 3 3 3 3 3 3 3 3 3 3 3 3 3 3 3 3 3 3 3 3 3 3 3 3 3 3 3 3 3 


CELL_DATA 160
SCALARS MaterialID int 1
LOOKUP_TABLE default
0 0 0 0 0 0 0 0 0 0 0 0 0 0 0 0 0 0 0 0 0 0 0 0 0 0 0 0 0 0 0 0 0 0 0 0 0 0 0 0 0 0 0 0 0 0 0 0 0 0 0 0 0 0 0 0 0 0 0 0 0 0 0 0 0 0 0 0 0 0 0 0 0 0 0 0 0 0 0 0 0 0 0 0 0 0 0 0 0 0 0 0 0 0 0 0 0 0 0 0 0 0 0 0 0 0 0 0 0 0 0 0 0 0 0 0 0 0 0 0 0 0 0 0 0 0 0 0 
1 1 1 1 1 1 1 1 1 1 1 1 1 1 1 1 1 1 1 1 1 1 1 1 1 1 1 1 1 1 1 1 


SCALARS ManifoldID int 1
LOOKUP_TABLE default
-1 -1 -1 -1 -1 -1 -1 -1 -1 -1 -1 -1 -1 -1 -1 -1 -1 -1 -1 -1 -1 -1 -1 -1 -1 -1 -1 -1 -1 -1 -1 -1 -1 -1 -1 -1 -1 -1 -1 -1 -1 -1 -1 -1 -1 -1 -1 -1 -1 -1 -1 -1 -1 -1 -1 -1 -1 -1 -1 -1 -1 -1 -1 -1 -1 -1 -1 -1 -1 -1 -1 -1 -1 -1 -1 -1 -1 -1 -1 -1 -1 -1 -1 -1 -1 -1 -1 -1 -1 -1 -1 -1 -1 -1 -1 -1 -1 -1 -1 -1 -1 -1 -1 -1 -1 -1 -1 -1 -1 -1 -1 -1 -1 -1 -1 -1 -1 -1 -1 -1 -1 -1 -1 -1 -1 -1 -1 -1 
0 0 0 0 0 0 0 0 0 0 0 0 0 0 0 0 0 0 0 0 0 0 0 0 0 0 0 0 0 0 0 0 

