# vtk DataFile Version 3.0
Triangulation generated with deal.II
ASCII
DATASET UNSTRUCTURED_GRID
POINTS 1617 double
1 -1 0
2 -1 0
3 -1 0
4 -1 0
1 0 0
2 0 0
3 0 0
4 0 0
1 1 0
2 1 0
3 1 0
4 1 0
1.5 -1 0
1 -0.5 0
2.5 -1 0
2 -0.5 0
3.5 -1 0
3 -0.5 0
4 -0.5 0
1.5 0 0
1 0.5 0
2.5 0 0
2 0.5 0
3.5 0 0
3 0.5 0
4 0.5 0
1.5 1 0
2.5 1 0
3.5 1 0
1.5 -0.5 0
2.5 -0.5 0
3.5 -0.5 0
1.5 0.5 0
2.5 0.5 0
3.5 0.5 0
1.25 -1 0
1.75 -1 0
1 -0.75 0
1 -0.25 0
2.25 -1 0
2.75 -1 0
2 -0.75 0
2 -0.25 0
3.25 -1 0
3.75 -1 0
3 -0.75 0
3 -0.25 0
4 -0.75 0
4 -0.25 0
1.25 0 0
1.75 0 0
1 0.25 0
1 0.75 0
2.25 0 0
2.75 0 0
2 0.25 0
2 0.75 0
3.25 0 0
3.75 0 0
3 0.25 0
3 0.75 0
4 0.25 0
4 0.75 0
1.25 1 0
1.75 1 0
2.25 1 0
2.75 1 0
3.25 1 0
3.75 1 0
1.5 -0.75 0
1.5 -0.25 0
1.25 -0.5 0
1.75 -0.5 0
2.5 -0.75 0
2.5 -0.25 0
2.25 -0.5 0
2.75 -0.5 0
3.5 -0.75 0
3.5 -0.25 0
3.25 -0.5 0
3.75 -0.5 0
1.5 0.25 0
1.5 0.75 0
1.25 0.5 0
1.75 0.5 0
2.5 0.25 0
2.5 0.75 0
2.25 0.5 0
2.75 0.5 0
3.5 0.25 0
3.5 0.75 0
3.25 0.5 0
3.75 0.5 0
1.25 -0.75 0
1.75 -0.75 0
1.25 -0.25 0
1.75 -0.25 0
2.25 -0.75 0
2.75 -0.75 0
2.25 -0.25 0
2.75 -0.25 0
3.25 -0.75 0
3.75 -0.75 0
3.25 -0.25 0
3.75 -0.25 0
1.25 0.25 0
1.75 0.25 0
1.25 0.75 0
1.75 0.75 0
2.25 0.25 0
2.75 0.25 0
2.25 0.75 0
2.75 0.75 0
3.25 0.25 0
3.75 0.25 0
3.25 0.75 0
3.75 0.75 0
1.125 -1 0
1.375 -1 0
1.625 -1 0
1.875 -1 0
1 -0.875 0
1 -0.625 0
1 -0.375 0
1 -0.125 0
2.125 -1 0
2.375 -1 0
2.625 -1 0
2.875 -1 0
2 -0.875 0
2 -0.625 0
2 -0.375 0
2 -0.125 0
3.125 -1 0
3.375 -1 0
3.625 -1 0
3.875 -1 0
3 -0.875 0
3 -0.625 0
3 -0.375 0
3 -0.125 0
4 -0.875 0
4 -0.625 0
4 -0.375 0
4 -0.125 0
1.125 0 0
1.375 0 0
1.625 0 0
1.875 0 0
1 0.125 0
1 0.375 0
1 0.625 0
1 0.875 0
2.125 0 0
2.375 0 0
2.625 0 0
2.875 0 0
2 0.125 0
2 0.375 0
2 0.625 0
2 0.875 0
3.125 0 0
3.375 0 0
3.625 0 0
3.875 0 0
3 0.125 0
3 0.375 0
3 0.625 0
3 0.875 0
4 0.125 0
4 0.375 0
4 0.625 0
4 0.875 0
1.125 1 0
1.375 1 0
1.625 1 0
1.875 1 0
2.125 1 0
2.375 1 0
2.625 1 0
2.875 1 0
3.125 1 0
3.375 1 0
3.625 1 0
3.875 1 0
1.5 -0.875 0
1.5 -0.625 0
1.5 -0.375 0
1.5 -0.125 0
1.125 -0.5 0
1.375 -0.5 0
1.625 -0.5 0
1.875 -0.5 0
2.5 -0.875 0
2.5 -0.625 0
2.5 -0.375 0
2.5 -0.125 0
2.125 -0.5 0
2.375 -0.5 0
2.625 -0.5 0
2.875 -0.5 0
3.5 -0.875 0
3.5 -0.625 0
3.5 -0.375 0
3.5 -0.125 0
3.125 -0.5 0
3.375 -0.5 0
3.625 -0.5 0
3.875 -0.5 0
1.5 0.125 0
1.5 0.375 0
1.5 0.625 0
1.5 0.875 0
1.125 0.5 0
1.375 0.5 0
1.625 0.5 0
1.875 0.5 0
2.5 0.125 0
2.5 0.375 0
2.5 0.625 0
2.5 0.875 0
2.125 0.5 0
2.375 0.5 0
2.625 0.5 0
2.875 0.5 0
3.5 0.125 0
3.5 0.375 0
3.5 0.625 0
3.5 0.875 0
3.125 0.5 0
3.375 0.5 0
3.625 0.5 0
3.875 0.5 0
1.25 -0.875 0
1.25 -0.625 0
1.125 -0.75 0
1.375 -0.75 0
1.75 -0.875 0
1.75 -0.625 0
1.625 -0.75 0
1.875 -0.75 0
1.25 -0.375 0
1.25 -0.125 0
1.125 -0.25 0
1.375 -0.25 0
1.75 -0.375 0
1.75 -0.125 0
1.625 -0.25 0
1.875 -0.25 0
2.25 -0.875 0
2.25 -0.625 0
2.125 -0.75 0
2.375 -0.75 0
2.75 -0.875 0
2.75 -0.625 0
2.625 -0.75 0
2.875 -0.75 0
2.25 -0.375 0
2.25 -0.125 0
2.125 -0.25 0
2.375 -0.25 0
2.75 -0.375 0
2.75 -0.125 0
2.625 -0.25 0
2.875 -0.25 0
3.25 -0.875 0
3.25 -0.625 0
3.125 -0.75 0
3.375 -0.75 0
3.75 -0.875 0
3.75 -0.625 0
3.625 -0.75 0
3.875 -0.75 0
3.25 -0.375 0
3.25 -0.125 0
3.125 -0.25 0
3.375 -0.25 0
3.75 -0.375 0
3.75 -0.125 0
3.625 -0.25 0
3.875 -0.25 0
1.25 0.125 0
1.25 0.375 0
1.125 0.25 0
1.375 0.25 0
1.75 0.125 0
1.75 0.375 0
1.625 0.25 0
1.875 0.25 0
1.25 0.625 0
1.25 0.875 0
1.125 0.75 0
1.375 0.75 0
1.75 0.625 0
1.75 0.875 0
1.625 0.75 0
1.875 0.75 0
2.25 0.125 0
2.25 0.375 0
2.125 0.25 0
2.375 0.25 0
2.75 0.125 0
2.75 0.375 0
2.625 0.25 0
2.875 0.25 0
2.25 0.625 0
2.25 0.875 0
2.125 0.75 0
2.375 0.75 0
2.75 0.625 0
2.75 0.875 0
2.625 0.75 0
2.875 0.75 0
3.25 0.125 0
3.25 0.375 0
3.125 0.25 0
3.375 0.25 0
3.75 0.125 0
3.75 0.375 0
3.625 0.25 0
3.875 0.25 0
3.25 0.625 0
3.25 0.875 0
3.125 0.75 0
3.375 0.75 0
3.75 0.625 0
3.75 0.875 0
3.625 0.75 0
3.875 0.75 0
1.125 -0.875 0
1.375 -0.875 0
1.125 -0.625 0
1.375 -0.625 0
1.625 -0.875 0
1.875 -0.875 0
1.625 -0.625 0
1.875 -0.625 0
1.125 -0.375 0
1.375 -0.375 0
1.125 -0.125 0
1.375 -0.125 0
1.625 -0.375 0
1.875 -0.375 0
1.625 -0.125 0
1.875 -0.125 0
2.125 -0.875 0
2.375 -0.875 0
2.125 -0.625 0
2.375 -0.625 0
2.625 -0.875 0
2.875 -0.875 0
2.625 -0.625 0
2.875 -0.625 0
2.125 -0.375 0
2.375 -0.375 0
2.125 -0.125 0
2.375 -0.125 0
2.625 -0.375 0
2.875 -0.375 0
2.625 -0.125 0
2.875 -0.125 0
3.125 -0.875 0
3.375 -0.875 0
3.125 -0.625 0
3.375 -0.625 0
3.625 -0.875 0
3.875 -0.875 0
3.625 -0.625 0
3.875 -0.625 0
3.125 -0.375 0
3.375 -0.375 0
3.125 -0.125 0
3.375 -0.125 0
3.625 -0.375 0
3.875 -0.375 0
3.625 -0.125 0
3.875 -0.125 0
1.125 0.125 0
1.375 0.125 0
1.125 0.375 0
1.375 0.375 0
1.625 0.125 0
1.875 0.125 0
1.625 0.375 0
1.875 0.375 0
1.125 0.625 0
1.375 0.625 0
1.125 0.875 0
1.375 0.875 0
1.625 0.625 0
1.875 0.625 0
1.625 0.875 0
1.875 0.875 0
2.125 0.125 0
2.375 0.125 0
2.125 0.375 0
2.375 0.375 0
2.625 0.125 0
2.875 0.125 0
2.625 0.375 0
2.875 0.375 0
2.125 0.625 0
2.375 0.625 0
2.125 0.875 0
2.375 0.875 0
2.625 0.625 0
2.875 0.625 0
2.625 0.875 0
2.875 0.875 0
3.125 0.125 0
3.375 0.125 0
3.125 0.375 0
3.375 0.375 0
3.625 0.125 0
3.875 0.125 0
3.625 0.375 0
3.875 0.375 0
3.125 0.625 0
3.375 0.625 0
3.125 0.875 0
3.375 0.875 0
3.625 0.625 0
3.875 0.625 0
3.625 0.875 0
3.875 0.875 0
1.0625 -1 0
1.1875 -1 0
1.3125 -1 0
1.4375 -1 0
1.5625 -1 0
1.6875 -1 0
1.8125 -1 0
1.9375 -1 0
1 -0.9375 0
1 -0.8125 0
1 -0.6875 0
1 -0.5625 0
1 -0.4375 0
1 -0.3125 0
1 -0.1875 0
1 -0.0625 0
2.0625 -1 0
2.1875 -1 0
2.3125 -1 0
2.4375 -1 0
2.5625 -1 0
2.6875 -1 0
2.8125 -1 0
2.9375 -1 0
2 -0.9375 0
2 -0.8125 0
2 -0.6875 0
2 -0.5625 0
2 -0.4375 0
2 -0.3125 0
2 -0.1875 0
2 -0.0625 0
3.0625 -1 0
3.1875 -1 0
3.3125 -1 0
3.4375 -1 0
3.5625 -1 0
3.6875 -1 0
3.8125 -1 0
3.9375 -1 0
3 -0.9375 0
3 -0.8125 0
3 -0.6875 0
3 -0.5625 0
3 -0.4375 0
3 -0.3125 0
3 -0.1875 0
3 -0.0625 0
4 -0.9375 0
4 -0.8125 0
4 -0.6875 0
4 -0.5625 0
4 -0.4375 0
4 -0.3125 0
4 -0.1875 0
4 -0.0625 0
1.0625 0 0
1.1875 0 0
1.3125 0 0
1.4375 0 0
1.5625 0 0
1.6875 0 0
1.8125 0 0
1.9375 0 0
1 0.0625 0
1 0.1875 0
1 0.3125 0
1 0.4375 0
1 0.5625 0
1 0.6875 0
1 0.8125 0
1 0.9375 0
2.0625 0 0
2.1875 0 0
2.3125 0 0
2.4375 0 0
2.5625 0 0
2.6875 0 0
2.8125 0 0
2.9375 0 0
2 0.0625 0
2 0.1875 0
2 0.3125 0
2 0.4375 0
2 0.5625 0
2 0.6875 0
2 0.8125 0
2 0.9375 0
3.0625 0 0
3.1875 0 0
3.3125 0 0
3.4375 0 0
3.5625 0 0
3.6875 0 0
3.8125 0 0
3.9375 0 0
3 0.0625 0
3 0.1875 0
3 0.3125 0
3 0.4375 0
3 0.5625 0
3 0.6875 0
3 0.8125 0
3 0.9375 0
4 0.0625 0
4 0.1875 0
4 0.3125 0
4 0.4375 0
4 0.5625 0
4 0.6875 0
4 0.8125 0
4 0.9375 0
1.0625 1 0
1.1875 1 0
1.3125 1 0
1.4375 1 0
1.5625 1 0
1.6875 1 0
1.8125 1 0
1.9375 1 0
2.0625 1 0
2.1875 1 0
2.3125 1 0
2.4375 1 0
2.5625 1 0
2.6875 1 0
2.8125 1 0
2.9375 1 0
3.0625 1 0
3.1875 1 0
3.3125 1 0
3.4375 1 0
3.5625 1 0
3.6875 1 0
3.8125 1 0
3.9375 1 0
1.5 -0.9375 0
1.5 -0.8125 0
1.5 -0.6875 0
1.5 -0.5625 0
1.5 -0.4375 0
1.5 -0.3125 0
1.5 -0.1875 0
1.5 -0.0625 0
1.0625 -0.5 0
1.1875 -0.5 0
1.3125 -0.5 0
1.4375 -0.5 0
1.5625 -0.5 0
1.6875 -0.5 0
1.8125 -0.5 0
1.9375 -0.5 0
2.5 -0.9375 0
2.5 -0.8125 0
2.5 -0.6875 0
2.5 -0.5625 0
2.5 -0.4375 0
2.5 -0.3125 0
2.5 -0.1875 0
2.5 -0.0625 0
2.0625 -0.5 0
2.1875 -0.5 0
2.3125 -0.5 0
2.4375 -0.5 0
2.5625 -0.5 0
2.6875 -0.5 0
2.8125 -0.5 0
2.9375 -0.5 0
3.5 -0.9375 0
3.5 -0.8125 0
3.5 -0.6875 0
3.5 -0.5625 0
3.5 -0.4375 0
3.5 -0.3125 0
3.5 -0.1875 0
3.5 -0.0625 0
3.0625 -0.5 0
3.1875 -0.5 0
3.3125 -0.5 0
3.4375 -0.5 0
3.5625 -0.5 0
3.6875 -0.5 0
3.8125 -0.5 0
3.9375 -0.5 0
1.5 0.0625 0
1.5 0.1875 0
1.5 0.3125 0
1.5 0.4375 0
1.5 0.5625 0
1.5 0.6875 0
1.5 0.8125 0
1.5 0.9375 0
1.0625 0.5 0
1.1875 0.5 0
1.3125 0.5 0
1.4375 0.5 0
1.5625 0.5 0
1.6875 0.5 0
1.8125 0.5 0
1.9375 0.5 0
2.5 0.0625 0
2.5 0.1875 0
2.5 0.3125 0
2.5 0.4375 0
2.5 0.5625 0
2.5 0.6875 0
2.5 0.8125 0
2.5 0.9375 0
2.0625 0.5 0
2.1875 0.5 0
2.3125 0.5 0
2.4375 0.5 0
2.5625 0.5 0
2.6875 0.5 0
2.8125 0.5 0
2.9375 0.5 0
3.5 0.0625 0
3.5 0.1875 0
3.5 0.3125 0
3.5 0.4375 0
3.5 0.5625 0
3.5 0.6875 0
3.5 0.8125 0
3.5 0.9375 0
3.0625 0.5 0
3.1875 0.5 0
3.3125 0.5 0
3.4375 0.5 0
3.5625 0.5 0
3.6875 0.5 0
3.8125 0.5 0
3.9375 0.5 0
1.25 -0.9375 0
1.25 -0.8125 0
1.25 -0.6875 0
1.25 -0.5625 0
1.0625 -0.75 0
1.1875 -0.75 0
1.3125 -0.75 0
1.4375 -0.75 0
1.75 -0.9375 0
1.75 -0.8125 0
1.75 -0.6875 0
1.75 -0.5625 0
1.5625 -0.75 0
1.6875 -0.75 0
1.8125 -0.75 0
1.9375 -0.75 0
1.25 -0.4375 0
1.25 -0.3125 0
1.25 -0.1875 0
1.25 -0.0625 0
1.0625 -0.25 0
1.1875 -0.25 0
1.3125 -0.25 0
1.4375 -0.25 0
1.75 -0.4375 0
1.75 -0.3125 0
1.75 -0.1875 0
1.75 -0.0625 0
1.5625 -0.25 0
1.6875 -0.25 0
1.8125 -0.25 0
1.9375 -0.25 0
2.25 -0.9375 0
2.25 -0.8125 0
2.25 -0.6875 0
2.25 -0.5625 0
2.0625 -0.75 0
2.1875 -0.75 0
2.3125 -0.75 0
2.4375 -0.75 0
2.75 -0.9375 0
2.75 -0.8125 0
2.75 -0.6875 0
2.75 -0.5625 0
2.5625 -0.75 0
2.6875 -0.75 0
2.8125 -0.75 0
2.9375 -0.75 0
2.25 -0.4375 0
2.25 -0.3125 0
2.25 -0.1875 0
2.25 -0.0625 0
2.0625 -0.25 0
2.1875 -0.25 0
2.3125 -0.25 0
2.4375 -0.25 0
2.75 -0.4375 0
2.75 -0.3125 0
2.75 -0.1875 0
2.75 -0.0625 0
2.5625 -0.25 0
2.6875 -0.25 0
2.8125 -0.25 0
2.9375 -0.25 0
3.25 -0.9375 0
3.25 -0.8125 0
3.25 -0.6875 0
3.25 -0.5625 0
3.0625 -0.75 0
3.1875 -0.75 0
3.3125 -0.75 0
3.4375 -0.75 0
3.75 -0.9375 0
3.75 -0.8125 0
3.75 -0.6875 0
3.75 -0.5625 0
3.5625 -0.75 0
3.6875 -0.75 0
3.8125 -0.75 0
3.9375 -0.75 0
3.25 -0.4375 0
3.25 -0.3125 0
3.25 -0.1875 0
3.25 -0.0625 0
3.0625 -0.25 0
3.1875 -0.25 0
3.3125 -0.25 0
3.4375 -0.25 0
3.75 -0.4375 0
3.75 -0.3125 0
3.75 -0.1875 0
3.75 -0.0625 0
3.5625 -0.25 0
3.6875 -0.25 0
3.8125 -0.25 0
3.9375 -0.25 0
1.25 0.0625 0
1.25 0.1875 0
1.25 0.3125 0
1.25 0.4375 0
1.0625 0.25 0
1.1875 0.25 0
1.3125 0.25 0
1.4375 0.25 0
1.75 0.0625 0
1.75 0.1875 0
1.75 0.3125 0
1.75 0.4375 0
1.5625 0.25 0
1.6875 0.25 0
1.8125 0.25 0
1.9375 0.25 0
1.25 0.5625 0
1.25 0.6875 0
1.25 0.8125 0
1.25 0.9375 0
1.0625 0.75 0
1.1875 0.75 0
1.3125 0.75 0
1.4375 0.75 0
1.75 0.5625 0
1.75 0.6875 0
1.75 0.8125 0
1.75 0.9375 0
1.5625 0.75 0
1.6875 0.75 0
[...]
CELL_DATA 1536
SCALARS MaterialID int 1
LOOKUP_TABLE default
0 0 0 0 0 0 0 0 0 0 0 0 0 0 0 0 0 0 0 0 0 0 0 0 0 0 0 0 0 0 0 0 0 0 0 0 0 0 0 0 0 0 0 0 0 0 0 0 0 0 0 0 0 0 0 0 0 0 0 0 0 0 0 0 0 0 0 0 0 0 0 0 0 0 0 0 0 0 0 0 0 0 0 0 0 0 0 0 0 0 0 0 0 0 0 0 0 0 0 0 0 0 0 0 0 0 0 0 0 0 0 0 0 0 0 0 0 0 0 0 0 0 0 0 0 0 0 0 0 0 0 0 0 0 0 0 0 0 0 0 0 0 0 0 0 0 0 0 0 0 0 0 0 0 0 0 0 0 0 0 0 0 0 0 0 0 0 0 0 0 0 0 0 0 0 0 0 0 0 0 0 0 0 0 0 0 0 0 0 0 0 0 0 0 0 0 0 0 0 0 0 0 0 0 0 0 0 0 0 0 0 0 0 0 0 0 0 0 0 0 0 0 0 0 0 0 0 0 0 0 0 0 0 0 0 0 0 0 0 0 0 0 0 0 0 0 0 0 0 0 0 0 0 0 0 0 0 0 0 0 0 0 0 0 0 0 0 0 0 0 0 0 0 0 0 0 0 0 0 0 0 0 0 0 0 0 0 0 0 0 0 0 0 0 0 0 0 0 0 0 0 0 0 0 0 0 0 0 0 0 0 0 0 0 0 0 0 0 0 0 0 0 0 0 0 0 0 0 0 0 0 0 0 0 0 0 0 0 0 0 0 0 0 0 0 0 0 0 0 0 0 0 0 0 0 0 0 0 0 0 0 0 0 0 0 0 0 0 0 0 0 0 0 0 0 0 0 0 0 0 0 0 0 0 0 0 0 0 0 0 0 0 0 0 0 0 0 0 0 0 0 0 0 0 0 0 0 0 0 0 0 0 0 0 0 0 0 0 0 0 0 0 0 0 0 0 0 0 0 0 0 0 0 0 0 0 0 0 0 0 0 0 0 0 0 0 0 0 0 0 0 0 0 0 0 0 0 0 0 0 0 0 0 0 0 0 0 0 0 0 0 0 0 0 0 0 0 0 0 0 0 0 0 0 0 0 0 0 0 0 0 0 0 0 0 0 0 0 0 0 0 0 0 0 0 0 0 0 0 0 0 0 0 0 0 0 0 0 0 0 0 0 0 0 0 0 0 0 0 0 0 0 0 0 0 0 0 0 0 0 0 0 0 0 0 0 0 0 0 0 0 0 0 0 0 0 0 0 0 0 0 0 0 0 0 0 0 0 0 0 0 0 0 0 0 0 0 0 0 0 0 0 0 0 0 0 0 0 0 0 0 0 0 0 0 0 0 0 0 0 0 0 0 0 0 0 0 0 0 0 0 0 0 0 0 0 0 0 0 0 0 0 0 0 0 0 0 0 0 0 0 0 0 0 0 0 0 0 0 0 0 0 0 0 0 0 0 0 0 0 0 0 0 0 0 0 0 0 0 0 0 0 0 0 0 0 0 0 0 0 0 0 0 0 0 0 0 0 0 0 0 0 0 0 0 0 0 0 0 0 0 0 0 0 0 0 0 0 0 0 0 0 0 0 0 0 0 0 0 0 0 0 0 0 0 0 0 0 0 0 0 0 0 0 0 0 0 0 0 0 0 0 0 0 0 0 0 0 0 0 0 0 0 0 0 0 0 0 0 0 0 0 0 0 0 0 0 0 0 0 0 0 0 0 0 0 0 0 0 0 0 0 0 0 0 0 0 0 0 0 0 0 0 0 0 0 0 0 0 0 0 0 0 0 0 0 0 0 0 0 0 0 0 0 0 0 0 0 0 0 0 0 0 0 0 0 0 0 0 0 0 0 0 0 0 0 0 0 0 0 0 0 0 0 0 0 0 0 0 0 0 0 0 0 0 0 0 0 0 0 0 0 0 0 0 0 0 0 0 0 0 0 0 0 0 0 0 0 0 0 0 0 0 0 0 0 0 0 0 0 0 0 0 0 0 0 0 0 0 0 0 0 0 0 0 0 0 0 0 0 0 0 0 0 0 0 0 0 0 0 0 0 0 0 0 0 0 0 0 0 0 0 0 0 0 0 0 0 0 0 0 0 0 0 0 0 0 0 0 0 0 0 0 0 0 0 0 0 0 0 0 0 0 0 0 0 0 0 0 0 0 0 0 0 0 0 0 0 0 0 0 0 0 0 0 0 0 0 0 0 0 0 0 0 0 0 0 0 0 0 0 0 0 0 0 0 0 0 0 0 0 0 0 0 0 0 0 0 0 0 0 0 0 0 0 0 0 0 0 0 0 0 0 0 0 0 0 0 0 0 0 0 0 0 0 0 0 0 0 0 0 0 0 0 0 0 0 0 0 0 0 0 0 0 0 0 0 0 0 0 0 0 0 0 0 0 0 0 0 0 0 0 0 0 0 0 0 0 0 0 0 0 0 0 0 0 0 0 0 0 0 0 0 0 0 0 0 0 0 0 0 0 0 0 0 0 0 0 0 0 0 0 0 0 0 0 0 0 0 0 0 0 0 0 0 0 0 0 0 0 0 0 0 0 0 0 0 0 0 0 0 0 0 0 0 0 0 0 0 0 0 0 0 0 0 0 0 0 0 0 0 0 0 0 0 0 0 0 0 0 0 0 0 0 0 0 0 0 0 0 0 0 0 0 0 0 0 0 0 0 0 0 0 0 0 0 0 0 0 0 0 0 0 0 0 0 0 0 0 0 0 0 0 0 0 0 0 0 0 0 0 0 0 0 0 0 0 0 0 0 0 0 0 0 0 0 0 0 0 0 0 0 0 0 0 0 0 0 0 0 0 0 0 0 0 0 0 0 0 0 0 0 0 0 0 0 0 0 0 0 0 0 0 0 0 0 0 0 0 0 0 0 0 0 0 0 0 0 0 0 0 0 0 0 0 0 0 0 0 0 0 0 0 0 0 0 0 0 0 0 0 0 0 0 0 0 0 0 0 0 0 0 0 0 0 0 0 0 0 0 0 0 0 0 0 0 0 0 0 0 0 0 0 0 0 0 0 0 0 0 0 0 0 0 0 0 0 0 0 0 0 0 0 0 0 0 0 0 0 0 0 0 0 0 0 0 0 0 0 0 0 0 0 0 0 0 0 0 0 0 0 0 0 0 0 0 0 0 0 0 0 0 0 0 0 0 0 0 0 0 0 0 0 0 0 0 0 0 0 0 0 0 0 0 0 0 0 0 0 0 0 0 0 0 0 0 0 0 0 0 0 0 0 0 0 0 0 0 0 0 0 0 0 0 0 0 0 0 0 0 0 0 0 0 0 0 0 0 0 0 0 0 0 0 0 0 0 0 0 0 0 0 0 0 0 0 0 0 0 0 0 0 0 0 0 0 0 0 0 0 0 0 0 0 0 0 0 0 0 0 0 0 0 0 0 0 0 0 0 0 0 0 0 0 0 0 0 0 0 0 0 0 0 0 0 0 



SCALARS ManifoldID int 1
LOOKUP_TABLE default
-1 -1 -1 -1 -1 -1 -1 -1 -1 -1 -1 -1 -1 -1 -1 -1 -1 -1 -1 -1 -1 -1 -1 -1 -1 -1 -1 -1 -1 -1 -1 -1 -1 -1 -1 -1 -1 -1 -1 -1 -1 -1 -1 -1 -1 -1 -1 -1 -1 -1 -1 -1 -1 -1 -1 -1 -1 -1 -1 -1 -1 -1 -1 -1 -1 -1 -1 -1 -1 -1 -1 -1 -1 -1 -1 -1 -1 -1 -1 -1 -1 -1 -1 -1 -1 -1 -1 -1 -1 -1 -1 -1 -1 -1 -1 -1 -1 -1 -1 -1 -1 -1 -1 -1 -1 -1 -1 -1 -1 -1 -1 -1 -1 -1 -1 -1 -1 -1 -1 -1 -1 -1 -1 -1 -1 -1 -1 -1 -1 -1 -1 -1 -1 -1 -1 -1 -1 -1 -1 -1 -1 -1 -1 -1 -1 -1 -1 -1 -1 -1 -1 -1 -1 -1 -1 -1 -1 -1 -1 -1 -1 -1 -1 -1 -1 -1 -1 -1 -1 -1 -1 -1 -1 -1 -1 -1 -1 -1 -1 -1 -1 -1 -1 -1 -1 -1 -1 -1 -1 -1 -1 -1 -1 -1 -1 -1 -1 -1 -1 -1 -1 -1 -1 -1 -1 -1 -1 -1 -1 -1 -1 -1 -1 -1 -1 -1 -1 -1 -1 -1 -1 -1 -1 -1 -1 -1 -1 -1 -1 -1 -1 -1 -1 -1 -1 -1 -1 -1 -1 -1 -1 -1 -1 -1 -1 -1 -1 -1 -1 -1 -1 -1 -1 -1 -1 -1 -1 -1 -1 -1 -1 -1 -1 -1 -1 -1 -1 -1 -1 -1 -1 -1 -1 -1 -1 -1 -1 -1 -1 -1 -1 -1 -1 -1 -1 -1 -1 -1 -1 -1 -1 -1 -1 -1 -1 -1 -1 -1 -1 -1 -1 -1 -1 -1 -1 -1 -1 -1 -1 -1 -1 -1 -1 -1 -1 -1 -1 -1 -1 -1 -1 -1 -1 -1 -1 -1 -1 -1 -1 -1 -1 -1 -1 -1 -1 -1 -1 -1 -1 -1 -1 -1 -1 -1 -1 -1 -1 -1 -1 -1 -1 -1 -1 -1 -1 -1 -1 -1 -1 -1 -1 -1 -1 -1 -1 -1 -1 -1 -1 -1 -1 -1 -1 -1 -1 -1 -1 -1 -1 -1 -1 -1 -1 -1 -1 -1 -1 -1 -1 -1 -1 -1 -1 -1 -1 -1 -1 -1 -1 -1 -1 -1 -1 -1 -1 -1 -1 -1 -1 -1 -1 -1 -1 -1 -1 -1 -1 -1 -1 -1 -1 -1 -1 -1 -1 -1 -1 -1 -1 -1 -1 -1 -1 -1 -1 -1 -1 -1 -1 -1 -1 -1 -1 -1 -1 -1 -1 -1 -1 -1 -1 -1 -1 -1 -1 -1 -1 -1 -1 -1 -1 -1 -1 -1 -1 -1 -1 -1 -1 -1 -1 -1 -1 -1 -1 -1 -1 -1 -1 -1 -1 -1 -1 -1 -1 -1 -1 -1 -1 -1 -1 -1 -1 -1 -1 -1 -1 -1 -1 -1 -1 -1 -1 -1 -1 -1 -1 -1 -1 -1 -1 -1 -1 -1 -1 -1 -1 -1 -1 -1 -1 -1 -1 -1 -1 -1 -1 -1 -1 -1 -1 -1 -1 -1 -1 -1 -1 -1 -1 -1 -1 -1 -1 -1 -1 -1 -1 -1 -1 -1 -1 -1 -1 -1 -1 -1 -1 -1 -1 -1 -1 -1 -1 -1 -1 -1 -1 -1 -1 -1 -1 -1 -1 -1 -1 -1 -1 -1 -1 -1 -1 -1 -1 -1 -1 -1 -1 -1 -1 -1 -1 -1 -1 -1 -1 -1 -1 -1 -1 -1 -1 -1 -1 -1 -1 -1 -1 -1 -1 -1 -1 -1 -1 -1 -1 -1 -1 -1 -1 -1 -1 -1 -1 -1 -1 -1 -1 -1 -1 -1 -1 -1 -1 -1 -1 -1 -1 -1 -1 -1 -1 -1 -1 -1 -1 -1 -1 -1 -1 -1 -1 -1 -1 -1 -1 -1 -1 -1 -1 -1 -1 -1 -1 -1 -1 -1 -1 -1 -1 -1 -1 -1 -1 -1 -1 -1 -1 -1 -1 -1 -1 -1 -1 -1 -1 -1 -1 -1 -1 -1 -1 -1 -1 -1 -1 -1 -1 -1 -1 -1 -1 -1 -1 -1 -1 -1 -1 -1 -1 -1 -1 -1 -1 -1 -1 -1 -1 -1 -1 -1 -1 -1 -1 -1 -1 -1 -1 -1 -1 -1 -1 -1 -1 -1 -1 -1 -1 -1 -1 -1 -1 -1 -1 -1 -1 -1 -1 -1 -1 -1 -1 -1 -1 -1 -1 -1 -1 -1 -1 -1 -1 -1 -1 -1 -1 -1 -1 -1 -1 -1 -1 -1 -1 -1 -1 -1 -1 -1 -1 -1 -1 -1 -1 -1 -1 -1 -1 -1 -1 -1 -1 -1 -1 -1 -1 -1 -1 -1 -1 -1 -1 -1 -1 -1 -1 -1 -1 -1 -1 -1 -1 -1 -1 -1 -1 -1 -1 -1 -1 -1 -1 -1 -1 -1 -1 -1 -1 -1 -1 -1 -1 -1 -1 -1 -1 -1 -1 -1 -1 -1 -1 -1 -1 -1 -1 -1 -1 -1 -1 -1 -1 -1 -1 -1 -1 -1 -1 -1 -1 -1 -1 -1 -1 -1 -1 -1 -1 -1 -1 -1 -1 -1 -1 -1 -1 -1 -1 -1 -1 -1 -1 -1 -1 -1 -1 -1 -1 -1 -1 -1 -1 -1 -1 -1 -1 -1 -1 -1 -1 -1 -1 -1 -1 -1 -1 -1 -1 -1 -1 -1 -1 -1 -1 -1 -1 -1 -1 -1 -1 -1 -1 -1 -1 -1 -1 -1 -1 -1 -1 -1 -1 -1 -1 -1 -1 -1 -1 -1 -1 -1 -1 -1 -1 -1 -1 -1 -1 -1 -1 -1 -1 -1 -1 -1 -1 -1 -1 -1 -1 -1 -1 -1 -1 -1 -1 -1 -1 -1 -1 -1 -1 -1 -1 -1 -1 -1 -1 -1 -1 -1 -1 -1 -1 -1 -1 -1 -1 -1 -1 -1 -1 -1 -1 -1 -1 -1 -1 -1 -1 -1 -1 -1 -1 -1 -1 -1 -1 -1 -1 -1 -1 -1 -1 -1 -1 -1 -1 -1 -1 -1 -1 -1 -1 -1 -1 -1 -1 -1 -1 -1 -1 -1 -1 -1 -1 -1 -1 -1 -1 -1 -1 -1 -1 -1 -1 -1 -1 -1 -1 -1 -1 -1 -1 -1 -1 -1 -1 -1 -1 -1 -1 -1 -1 -1 -1 -1 -1 -1 -1 -1 -1 -1 -1 -1 -1 -1 -1 -1 -1 -1 -1 -1 -1 -1 -1 -1 -1 -1 -1 -1 -1 -1 -1 -1 -1 -1 -1 -1 -1 -1 -1 -1 -1 -1 -1 -1 -1 -1 -1 -1 -1 -1 -1 -1 -1 -1 -1 -1 -1 -1 -1 -1 -1 -1 -1 -1 -1 -1 -1 -1 -1 -1 -1 -1 -1 -1 -1 -1 -1 -1 -1 -1 -1 -1 -1 -1 -1 -1 -1 -1 -1 -1 -1 -1 -1 -1 -1 -1 -1 -1 -1 -1 -1 -1 -1 -1 -1 -1 -1 -1 -1 -1 -1 -1 -1 -1 -1 -1 -1 -1 -1 -1 -1 -1 -1 -1 -1 -1 -1 -1 -1 -1 -1 -1 -1 -1 -1 -1 -1 -1 -1 -1 -1 -1 -1 -1 -1 -1 -1 -1 -1 -1 -1 -1 -1 -1 -1 -1 -1 -1 -1 -1 -1 -1 -1 -1 -1 -1 -1 -1 -1 -1 -1 -1 -1 -1 -1 -1 -1 -1 -1 -1 -1 -1 -1 -1 -1 -1 -1 -1 -1 -1 -1 -1 -1 -1 -1 -1 -1 -1 -1 -1 -1 -1 -1 -1 -1 -1 -1 -1 -1 -1 -1 -1 -1 -1 -1 -1 -1 -1 -1 -1 -1 -1 -1 -1 -1 -1 -1 -1 -1 -1 -1 -1 -1 -1 -1 -1 -1 -1 -1 -1 -1 -1 -1 -1 -1 -1 -1 -1 -1 -1 -1 -1 -1 -1 -1 -1 -1 -1 -1 -1 -1 -1 -1 -1 -1 -1 -1 -1 -1 -1 -1 -1 -1 -1 -1 -1 -1 -1 -1 -1 -1 -1 -1 -1 -1 -1 -1 -1 -1 -1 -1 -1 -1 -1 -1 -1 -1 -1 -1 -1 -1 -1 -1 -1 -1 -1 -1 -1 -1 -1 -1 -1 -1 -1 -1 -1 -1 -1 -1 -1 -1 -1 -1 -1 -1 -1 -1 -1 -1 -1 -1 -1 -1 -1 -1 -1 -1 -1 -1 -1 -1 -1 -1 -1 -1 -1 -1 -1 -1 -1 -1 -1 -1 -1 -1 -1 -1 -1 -1 -1 -1 -1 -1 -1 -1 -1 -1 -1 -1 -1 -1 -1 -1 -1 -1 -1 -1 -1 -1 -1 -1 -1 -1 -1 -1 -1 -1 -1 -1 -1 -1 -1 -1 -1 -1 -1 -1 -1 -1 -1 -1 -1 -1 -1 -1 -1 -1 -1 -1 -1 -1 -1 -1 -1 -1 -1 -1 -1 -1 -1 -1 -1 -1 -1 -1 -1 -1 -1 -1 -1 -1 -1 -1 -1 -1 -1 -1 -1 -1 -1 -1 -1 -1 -1 -1 -1 -1 -1 -1 -1 -1 -1 -1 -1 -1 -1 -1 -1 -1 -1 -1 -1 -1 -1 -1 -1 -1 -1 -1 -1 -1 -1 -1 -1 


